 Entering Gaussian System, Link 0=g16
 Initial command:
 /apps/gaussian/g16/l1.exe "/local/Gau-314254.inp" -scrdir="/local/"
 Entering Link 1 = /apps/gaussian/g16/l1.exe PID=    314255.
  
 Copyright (c) 1988-2019, Gaussian, Inc.  All Rights Reserved.
  
 This is part of the Gaussian(R) 16 program.  It is based on
 the Gaussian(R) 09 system (copyright 2009, Gaussian, Inc.),
 the Gaussian(R) 03 system (copyright 2003, Gaussian, Inc.),
 the Gaussian(R) 98 system (copyright 1998, Gaussian, Inc.),
 the Gaussian(R) 94 system (copyright 1995, Gaussian, Inc.),
 the Gaussian 92(TM) system (copyright 1992, Gaussian, Inc.),
 the Gaussian 90(TM) system (copyright 1990, Gaussian, Inc.),
 the Gaussian 88(TM) system (copyright 1988, Gaussian, Inc.),
 the Gaussian 86(TM) system (copyright 1986, Carnegie Mellon
 University), and the Gaussian 82(TM) system (copyright 1983,
 Carnegie Mellon University). Gaussian is a federally registered
 trademark of Gaussian, Inc.
  
 This software contains proprietary and confidential information,
 including trade secrets, belonging to Gaussian, Inc.
  
 This software is provided under written license and may be
 used, copied, transmitted, or stored only in accord with that
 written license.
  
 The following legend is applicable only to US Government
 contracts under FAR:
  
                    RESTRICTED RIGHTS LEGEND
  
 Use, reproduction and disclosure by the US Government is
 subject to restrictions as set forth in subparagraphs (a)
 and (c) of the Commercial Computer Software - Restricted
 Rights clause in FAR 52.227-19.
  
 Gaussian, Inc.
 340 Quinnipiac St., Bldg. 40, Wallingford CT 06492
  
  
 ---------------------------------------------------------------
 Warning -- This program may not be used in any manner that
 competes with the business of Gaussian, Inc. or will provide
 assistance to any competitor of Gaussian, Inc.  The licensee
 of this program is prohibited from giving any competitor of
 Gaussian, Inc. access to this program.  By using this program,
 the user acknowledges that Gaussian, Inc. is engaged in the
 business of creating and licensing software in the field of
 computational chemistry and represents and warrants to the
 licensee that it is not a competitor of Gaussian, Inc. and that
 it will not use this program in any manner prohibited above.
 ---------------------------------------------------------------
  

 Cite this work as:
 Gaussian 16, Revision C.01,
 M. J. Frisch, G. W. Trucks, H. B. Schlegel, G. E. Scuseria, 
 M. A. Robb, J. R. Cheeseman, G. Scalmani, V. Barone, 
 G. A. Petersson, H. Nakatsuji, X. Li, M. Caricato, A. V. Marenich, 
 J. Bloino, B. G. Janesko, R. Gomperts, B. Mennucci, H. P. Hratchian, 
 J. V. Ortiz, A. F. Izmaylov, J. L. Sonnenberg, D. Williams-Young, 
 F. Ding, F. Lipparini, F. Egidi, J. Goings, B. Peng, A. Petrone, 
 T. Henderson, D. Ranasinghe, V. G. Zakrzewski, J. Gao, N. Rega, 
 G. Zheng, W. Liang, M. Hada, M. Ehara, K. Toyota, R. Fukuda, 
 J. Hasegawa, M. Ishida, T. Nakajima, Y. Honda, O. Kitao, H. Nakai, 
 T. Vreven, K. Throssell, J. A. Montgomery, Jr., J. E. Peralta, 
 F. Ogliaro, M. J. Bearpark, J. J. Heyd, E. N. Brothers, K. N. Kudin, 
 V. N. Staroverov, T. A. Keith, R. Kobayashi, J. Normand, 
 K. Raghavachari, A. P. Rendell, J. C. Burant, S. S. Iyengar, 
 J. Tomasi, M. Cossi, J. M. Millam, M. Klene, C. Adamo, R. Cammi, 
 J. W. Ochterski, R. L. Martin, K. Morokuma, O. Farkas, 
 J. B. Foresman, and D. J. Fox, Gaussian, Inc., Wallingford CT, 2019.
 
 ******************************************
 Gaussian 16:  ES64L-G16RevC.01  3-Jul-2019
                 8-Aug-2024 
 ******************************************
 %rwf=gaussian.rwf
 %chk=YZ-IV-221.chk
 %nprocshared=16
 Will use up to   16 processors via shared memory.
 %mem=16GB
 ----------------------------------------------------------------------
 #p opt wB97XD/6-31G** iop(3/107=0158200000) IOP(3/108=0158200000) TDA=
 (singlets, nstates=4, root=2)
 ----------------------------------------------------------------------
 1/18=20,19=15,26=3,38=1/1,3;
 2/9=110,12=2,17=6,18=5,40=1/2;
 3/5=1,6=6,7=101,11=9,25=1,30=1,71=1,74=-58,107=158200000,108=158200000/1,2,3,8;
 4//1;
 5/5=2,38=5/2;
 8/6=1,10=2,107=2,108=4/1;
 9/8=2,15=2,41=4,42=1,48=1/14;
 10/5=4,28=2/2;
 6/7=2,8=2,9=2,10=2/1;
 7/12=6,13=5,14=2/1,2,3,16;
 1/18=20,19=15,26=3/3(2);
 2/9=110/2;
 99//99;
 2/9=110/2;
 3/5=1,6=6,7=101,11=9,25=1,30=1,71=1,74=-58,107=158200000,108=158200000/1,2,3,8;
 4/5=5,16=3,69=1/1;
 5/5=2,38=5/2;
 8/6=1,10=2,107=2,108=4/1;
 9/8=2,15=2,41=4,42=1,48=1,49=4/14;
 10/5=4,28=2/2;
 7/12=6,13=5,14=2/1,2,3,16;
 1/18=20,19=15,26=3/3(-8);
 2/9=110/2;
 6/7=2,8=2,9=2,10=2/1;
 99/9=10/99;
 Leave Link    1 at Thu Aug  8 12:56:34 2024, MaxMem=  2147483648 cpu:               0.5 elap:               0.0
 (Enter /apps/gaussian/g16/l101.exe)
 ------------------------------------------------------------
 Tuning input file generated by xtune with parameters: w01582
 ------------------------------------------------------------
 Symbolic Z-matrix:
 Charge =  0 Multiplicity = 1
 C                     3.27967  -0.96206   0.15735 
 C                     2.80223   1.23816  -0.11053 
 C                     3.22313  -2.35413   0.23525 
 C                     4.50098  -0.2626    0.26046 
 C                     2.1672    2.47025  -0.27115 
 C                     4.19574   1.14316   0.09184 
 C                     4.41645  -3.035     0.44541 
 H                     2.28672  -2.8897    0.12625 
 C                     5.68647  -0.96987   0.47134 
 C                     2.9615    3.61065  -0.25012 
 H                     1.09283   2.54052  -0.39941 
 C                     4.97181   2.30388   0.10913 
 C                     5.63687  -2.35435   0.56797 
 H                     4.40044  -4.11805   0.51122 
 H                     6.63213  -0.44332   0.5531 
 C                     4.35      3.53316  -0.06713 
 H                     2.4932    4.58167  -0.37481 
 H                     6.04467   2.24397   0.26281 
 C                     0.88406  -0.35805  -0.22208 
 C                     0.234    -1.13705   0.74069 
 C                    -1.11053  -1.45113   0.58704 
 C                    -1.80161  -0.96588  -0.5201 
 C                    -1.16609  -0.18933  -1.48596 
 C                     0.18319   0.10637  -1.34028 
 N                     2.2506   -0.04446  -0.06858 
 S                    -3.545    -1.33385  -0.69643 
 O                    -3.81931  -2.53572   0.0903 
 H                     6.5493   -2.91738   0.73286 
 H                     4.94014   4.4433   -0.05766 
 H                    -1.62401  -2.06929   1.31491 
 H                    -1.71733   0.14605  -2.35736 
 H                     0.70648   0.6805   -2.09673 
 H                     0.78504  -1.48396   1.60768 
 O                    -3.86898  -1.25258  -2.12016 
 C                    -4.34405   0.0454    0.12113 
 C                    -4.59704  -0.03066   1.48872 
 C                    -4.6836    1.17175  -0.62435 
 C                    -5.19623   1.05374   2.12302 
 H                    -4.34525  -0.93302   2.03475 
 C                    -5.28284   2.24968   0.02124 
 H                    -4.49785   1.1871   -1.69256 
 C                    -5.53407   2.19158   1.39138 
 H                    -5.40503   1.00782   3.18648 
 H                    -5.55926   3.13171  -0.54652 
 H                    -6.00211   3.03402   1.89007 
 
 ITRead=  0  0  0  0  0  0  0  0  0  0  0  0  0  0  0  0  0  0  0  0
 ITRead=  0  0  0  0  0  0  0  0  0  0  0  0  0  0  0  0  0  0  0  0
 ITRead=  0  0  0  0  0
 MicOpt= -1 -1 -1 -1 -1 -1 -1 -1 -1 -1 -1 -1 -1 -1 -1 -1 -1 -1 -1 -1
 MicOpt= -1 -1 -1 -1 -1 -1 -1 -1 -1 -1 -1 -1 -1 -1 -1 -1 -1 -1 -1 -1
 MicOpt= -1 -1 -1 -1 -1
 NAtoms=     45 NQM=       45 NQMF=       0 NMMI=      0 NMMIF=      0
                NMic=       0 NMicF=      0.
                    Isotopes and Nuclear Properties:
 (Nuclear quadrupole moments (NQMom) in fm**2, nuclear magnetic moments (NMagM)
  in nuclear magnetons)

  Atom         1           2           3           4           5           6           7           8           9          10
 IAtWgt=          12          12          12          12          12          12          12           1          12          12
 AtmWgt=  12.0000000  12.0000000  12.0000000  12.0000000  12.0000000  12.0000000  12.0000000   1.0078250  12.0000000  12.0000000
 NucSpn=           0           0           0           0           0           0           0           1           0           0
 AtZEff=  -0.0000000  -0.0000000  -0.0000000  -0.0000000  -0.0000000  -0.0000000  -0.0000000  -0.0000000  -0.0000000  -0.0000000
 NQMom=    0.0000000   0.0000000   0.0000000   0.0000000   0.0000000   0.0000000   0.0000000   0.0000000   0.0000000   0.0000000
 NMagM=    0.0000000   0.0000000   0.0000000   0.0000000   0.0000000   0.0000000   0.0000000   2.7928460   0.0000000   0.0000000
 AtZNuc=   6.0000000   6.0000000   6.0000000   6.0000000   6.0000000   6.0000000   6.0000000   1.0000000   6.0000000   6.0000000

  Atom        11          12          13          14          15          16          17          18          19          20
 IAtWgt=           1          12          12           1           1          12           1           1          12          12
 AtmWgt=   1.0078250  12.0000000  12.0000000   1.0078250   1.0078250  12.0000000   1.0078250   1.0078250  12.0000000  12.0000000
 NucSpn=           1           0           0           1           1           0           1           1           0           0
 AtZEff=  -0.0000000  -0.0000000  -0.0000000  -0.0000000  -0.0000000  -0.0000000  -0.0000000  -0.0000000  -0.0000000  -0.0000000
 NQMom=    0.0000000   0.0000000   0.0000000   0.0000000   0.0000000   0.0000000   0.0000000   0.0000000   0.0000000   0.0000000
 NMagM=    2.7928460   0.0000000   0.0000000   2.7928460   2.7928460   0.0000000   2.7928460   2.7928460   0.0000000   0.0000000
 AtZNuc=   1.0000000   6.0000000   6.0000000   1.0000000   1.0000000   6.0000000   1.0000000   1.0000000   6.0000000   6.0000000

  Atom        21          22          23          24          25          26          27          28          29          30
 IAtWgt=          12          12          12          12          14          32          16           1           1           1
 AtmWgt=  12.0000000  12.0000000  12.0000000  12.0000000  14.0030740  31.9720718  15.9949146   1.0078250   1.0078250   1.0078250
 NucSpn=           0           0           0           0           2           0           0           1           1           1
 AtZEff=  -0.0000000  -0.0000000  -0.0000000  -0.0000000  -0.0000000  -0.0000000  -0.0000000  -0.0000000  -0.0000000  -0.0000000
 NQMom=    0.0000000   0.0000000   0.0000000   0.0000000   2.0440000   0.0000000   0.0000000   0.0000000   0.0000000   0.0000000
 NMagM=    0.0000000   0.0000000   0.0000000   0.0000000   0.4037610   0.0000000   0.0000000   2.7928460   2.7928460   2.7928460
 AtZNuc=   6.0000000   6.0000000   6.0000000   6.0000000   7.0000000  16.0000000   8.0000000   1.0000000   1.0000000   1.0000000

  Atom        31          32          33          34          35          36          37          38          39          40
 IAtWgt=           1           1           1          16          12          12          12          12           1          12
 AtmWgt=   1.0078250   1.0078250   1.0078250  15.9949146  12.0000000  12.0000000  12.0000000  12.0000000   1.0078250  12.0000000
 NucSpn=           1           1           1           0           0           0           0           0           1           0
 AtZEff=  -0.0000000  -0.0000000  -0.0000000  -0.0000000  -0.0000000  -0.0000000  -0.0000000  -0.0000000  -0.0000000  -0.0000000
 NQMom=    0.0000000   0.0000000   0.0000000   0.0000000   0.0000000   0.0000000   0.0000000   0.0000000   0.0000000   0.0000000
 NMagM=    2.7928460   2.7928460   2.7928460   0.0000000   0.0000000   0.0000000   0.0000000   0.0000000   2.7928460   0.0000000
 AtZNuc=   1.0000000   1.0000000   1.0000000   8.0000000   6.0000000   6.0000000   6.0000000   6.0000000   1.0000000   6.0000000

  Atom        41          42          43          44          45
 IAtWgt=           1          12           1           1           1
 AtmWgt=   1.0078250  12.0000000   1.0078250   1.0078250   1.0078250
 NucSpn=           1           0           1           1           1
 AtZEff=  -0.0000000  -0.0000000  -0.0000000  -0.0000000  -0.0000000
 NQMom=    0.0000000   0.0000000   0.0000000   0.0000000   0.0000000
 NMagM=    2.7928460   0.0000000   2.7928460   2.7928460   2.7928460
 AtZNuc=   1.0000000   6.0000000   1.0000000   1.0000000   1.0000000
 Leave Link  101 at Thu Aug  8 12:56:34 2024, MaxMem=  2147483648 cpu:               5.0 elap:               0.3
 (Enter /apps/gaussian/g16/l103.exe)

 GradGradGradGradGradGradGradGradGradGradGradGradGradGradGradGradGradGrad
 Berny optimization.
 Initialization pass.
                           ----------------------------
                           !    Initial Parameters    !
                           ! (Angstroms and Degrees)  !
 --------------------------                            --------------------------
 ! Name  Definition              Value          Derivative Info.                !
 --------------------------------------------------------------------------------
 ! R1    R(1,3)                  1.3954         estimate D2E/DX2                !
 ! R2    R(1,4)                  1.4112         estimate D2E/DX2                !
 ! R3    R(1,25)                 1.3971         estimate D2E/DX2                !
 ! R4    R(2,5)                  1.3954         estimate D2E/DX2                !
 ! R5    R(2,6)                  1.4113         estimate D2E/DX2                !
 ! R6    R(2,25)                 1.3968         estimate D2E/DX2                !
 ! R7    R(3,7)                  1.3899         estimate D2E/DX2                !
 ! R8    R(3,8)                  1.0842         estimate D2E/DX2                !
 ! R9    R(4,6)                  1.4484         estimate D2E/DX2                !
 ! R10   R(4,9)                  1.3965         estimate D2E/DX2                !
 ! R11   R(5,10)                 1.3899         estimate D2E/DX2                !
 ! R12   R(5,11)                 1.0843         estimate D2E/DX2                !
 ! R13   R(6,12)                 1.3964         estimate D2E/DX2                !
 ! R14   R(7,13)                 1.4028         estimate D2E/DX2                !
 ! R15   R(7,14)                 1.0852         estimate D2E/DX2                !
 ! R16   R(9,13)                 1.3887         estimate D2E/DX2                !
 ! R17   R(9,15)                 1.0855         estimate D2E/DX2                !
 ! R18   R(10,16)                1.4027         estimate D2E/DX2                !
 ! R19   R(10,17)                1.0852         estimate D2E/DX2                !
 ! R20   R(12,16)                1.3888         estimate D2E/DX2                !
 ! R21   R(12,18)                1.0855         estimate D2E/DX2                !
 ! R22   R(13,28)                1.0848         estimate D2E/DX2                !
 ! R23   R(16,29)                1.0848         estimate D2E/DX2                !
 ! R24   R(19,20)                1.3987         estimate D2E/DX2                !
 ! R25   R(19,24)                1.399          estimate D2E/DX2                !
 ! R26   R(19,25)                1.4104         estimate D2E/DX2                !
 ! R27   R(20,21)                1.3893         estimate D2E/DX2                !
 ! R28   R(20,33)                1.0843         estimate D2E/DX2                !
 ! R29   R(21,22)                1.3924         estimate D2E/DX2                !
 ! R30   R(21,30)                1.0842         estimate D2E/DX2                !
 ! R31   R(22,23)                1.3928         estimate D2E/DX2                !
 ! R32   R(22,26)                1.7905         estimate D2E/DX2                !
 ! R33   R(23,24)                1.389          estimate D2E/DX2                !
 ! R34   R(23,31)                1.0843         estimate D2E/DX2                !
 ! R35   R(24,32)                1.0843         estimate D2E/DX2                !
 ! R36   R(26,27)                1.4624         estimate D2E/DX2                !
 ! R37   R(26,34)                1.4624         estimate D2E/DX2                !
 ! R38   R(26,35)                1.7914         estimate D2E/DX2                !
 ! R39   R(35,36)                1.3929         estimate D2E/DX2                !
 ! R40   R(35,37)                1.3927         estimate D2E/DX2                !
 ! R41   R(36,38)                1.3919         estimate D2E/DX2                !
 ! R42   R(36,39)                1.0843         estimate D2E/DX2                !
 ! R43   R(37,40)                1.3921         estimate D2E/DX2                !
 ! R44   R(37,41)                1.0844         estimate D2E/DX2                !
 ! R45   R(38,42)                1.3943         estimate D2E/DX2                !
 ! R46   R(38,43)                1.0847         estimate D2E/DX2                !
 ! R47   R(40,42)                1.3942         estimate D2E/DX2                !
 ! R48   R(40,44)                1.0848         estimate D2E/DX2                !
 ! R49   R(42,45)                1.0851         estimate D2E/DX2                !
 ! A1    A(3,1,4)              121.6993         estimate D2E/DX2                !
 ! A2    A(3,1,25)             129.3744         estimate D2E/DX2                !
 ! A3    A(4,1,25)             108.8886         estimate D2E/DX2                !
 ! A4    A(5,2,6)              121.6877         estimate D2E/DX2                !
 ! A5    A(5,2,25)             129.3832         estimate D2E/DX2                !
 ! A6    A(6,2,25)             108.8936         estimate D2E/DX2                !
 ! A7    A(1,3,7)              117.5394         estimate D2E/DX2                !
 ! A8    A(1,3,8)              121.4778         estimate D2E/DX2                !
 ! A9    A(7,3,8)              120.9798         estimate D2E/DX2                !
 ! A10   A(1,4,6)              106.8683         estimate D2E/DX2                !
 ! A11   A(1,4,9)              119.65           estimate D2E/DX2                !
 ! A12   A(6,4,9)              133.4771         estimate D2E/DX2                !
 ! A13   A(2,5,10)             117.5579         estimate D2E/DX2                !
 ! A14   A(2,5,11)             121.4516         estimate D2E/DX2                !
 ! A15   A(10,5,11)            120.9885         estimate D2E/DX2                !
 ! A16   A(2,6,4)              106.8646         estimate D2E/DX2                !
 ! A17   A(2,6,12)             119.6425         estimate D2E/DX2                !
 ! A18   A(4,6,12)             133.4889         estimate D2E/DX2                !
 ! A19   A(3,7,13)             121.4997         estimate D2E/DX2                !
 ! A20   A(3,7,14)             119.0405         estimate D2E/DX2                !
 ! A21   A(13,7,14)            119.4593         estimate D2E/DX2                !
 ! A22   A(4,9,13)             119.0199         estimate D2E/DX2                !
 ! A23   A(4,9,15)             120.3502         estimate D2E/DX2                !
 ! A24   A(13,9,15)            120.6292         estimate D2E/DX2                !
 ! A25   A(5,10,16)            121.4906         estimate D2E/DX2                !
 ! A26   A(5,10,17)            119.0643         estimate D2E/DX2                !
 ! A27   A(16,10,17)           119.4448         estimate D2E/DX2                !
 ! A28   A(6,12,16)            119.0345         estimate D2E/DX2                !
 ! A29   A(6,12,18)            120.3443         estimate D2E/DX2                !
 ! A30   A(16,12,18)           120.6207         estimate D2E/DX2                !
 ! A31   A(7,13,9)             120.5787         estimate D2E/DX2                !
 ! A32   A(7,13,28)            119.5535         estimate D2E/DX2                !
 ! A33   A(9,13,28)            119.8665         estimate D2E/DX2                !
 ! A34   A(10,16,12)           120.5747         estimate D2E/DX2                !
 ! A35   A(10,16,29)           119.5598         estimate D2E/DX2                !
 ! A36   A(12,16,29)           119.8645         estimate D2E/DX2                !
 ! A37   A(20,19,24)           120.147          estimate D2E/DX2                !
 ! A38   A(20,19,25)           119.9481         estimate D2E/DX2                !
 ! A39   A(24,19,25)           119.9044         estimate D2E/DX2                !
 ! A40   A(19,20,21)           119.9725         estimate D2E/DX2                !
 ! A41   A(19,20,33)           119.4982         estimate D2E/DX2                !
 ! A42   A(21,20,33)           120.5271         estimate D2E/DX2                !
 ! A43   A(20,21,22)           119.3074         estimate D2E/DX2                !
 ! A44   A(20,21,30)           120.863          estimate D2E/DX2                !
 ! A45   A(22,21,30)           119.8294         estimate D2E/DX2                !
 ! A46   A(21,22,23)           121.2813         estimate D2E/DX2                !
 ! A47   A(21,22,26)           119.3369         estimate D2E/DX2                !
 ! A48   A(23,22,26)           119.379          estimate D2E/DX2                !
 ! A49   A(22,23,24)           119.29           estimate D2E/DX2                !
 ! A50   A(22,23,31)           119.8548         estimate D2E/DX2                !
 ! A51   A(24,23,31)           120.8174         estimate D2E/DX2                !
 ! A52   A(19,24,23)           119.9877         estimate D2E/DX2                !
 ! A53   A(19,24,32)           119.4458         estimate D2E/DX2                !
 ! A54   A(23,24,32)           120.5565         estimate D2E/DX2                !
 ! A55   A(1,25,2)             108.4846         estimate D2E/DX2                !
 ! A56   A(1,25,19)            125.817          estimate D2E/DX2                !
 ! A57   A(2,25,19)            125.6978         estimate D2E/DX2                !
 ! A58   A(22,26,27)           107.3709         estimate D2E/DX2                !
 ! A59   A(22,26,34)           107.4676         estimate D2E/DX2                !
 ! A60   A(22,26,35)           103.3639         estimate D2E/DX2                !
 ! A61   A(27,26,34)           121.8606         estimate D2E/DX2                !
 ! A62   A(27,26,35)           107.6722         estimate D2E/DX2                !
 ! A63   A(34,26,35)           107.6203         estimate D2E/DX2                !
 ! A64   A(26,35,36)           119.1477         estimate D2E/DX2                !
 ! A65   A(26,35,37)           119.1518         estimate D2E/DX2                !
 ! A66   A(36,35,37)           121.6971         estimate D2E/DX2                !
 ! A67   A(35,36,38)           118.8879         estimate D2E/DX2                !
 ! A68   A(35,36,39)           119.8471         estimate D2E/DX2                !
 ! A69   A(38,36,39)           121.2533         estimate D2E/DX2                !
 ! A70   A(35,37,40)           118.8787         estimate D2E/DX2                !
 ! A71   A(35,37,41)           119.8007         estimate D2E/DX2                !
 ! A72   A(40,37,41)           121.308          estimate D2E/DX2                !
 ! A73   A(36,38,42)           120.0638         estimate D2E/DX2                !
 ! A74   A(36,38,43)           119.7801         estimate D2E/DX2                !
 ! A75   A(42,38,43)           120.1549         estimate D2E/DX2                !
 ! A76   A(37,40,42)           120.0704         estimate D2E/DX2                !
 ! A77   A(37,40,44)           119.7746         estimate D2E/DX2                !
 ! A78   A(42,40,44)           120.1538         estimate D2E/DX2                !
 ! A79   A(38,42,40)           120.3994         estimate D2E/DX2                !
 ! A80   A(38,42,45)           119.796          estimate D2E/DX2                !
 ! A81   A(40,42,45)           119.8029         estimate D2E/DX2                !
 ! D1    D(4,1,3,7)              1.219          estimate D2E/DX2                !
 ! D2    D(4,1,3,8)           -178.164          estimate D2E/DX2                !
 ! D3    D(25,1,3,7)           178.7252         estimate D2E/DX2                !
 ! D4    D(25,1,3,8)            -0.6577         estimate D2E/DX2                !
 ! D5    D(3,1,4,6)            178.0843         estimate D2E/DX2                !
 ! D6    D(3,1,4,9)             -1.2397         estimate D2E/DX2                !
 ! D7    D(25,1,4,6)             0.1216         estimate D2E/DX2                !
 ! D8    D(25,1,4,9)          -179.2024         estimate D2E/DX2                !
 ! D9    D(3,1,25,2)          -177.7862         estimate D2E/DX2                !
 ! D10   D(3,1,25,19)            2.4972         estimate D2E/DX2                !
 ! D11   D(4,1,25,2)            -0.0286         estimate D2E/DX2                !
 ! D12   D(4,1,25,19)         -179.7451         estimate D2E/DX2                !
 ! D13   D(6,2,5,10)             1.1765         estimate D2E/DX2                !
 ! D14   D(6,2,5,11)          -178.3103         estimate D2E/DX2                !
 ! D15   D(25,2,5,10)          178.7572         estimate D2E/DX2                !
 ! D16   D(25,2,5,11)           -0.7296         estimate D2E/DX2                !
 ! D17   D(5,2,6,4)            178.1764         estimate D2E/DX2                !
 ! D18   D(5,2,6,12)            -1.1943         estimate D2E/DX2                !
 ! D19   D(25,2,6,4)             0.1527         estimate D2E/DX2                !
 ! D20   D(25,2,6,12)         -179.2181         estimate D2E/DX2                !
 ! D21   D(5,2,25,1)          -177.9038         estimate D2E/DX2                !
 ! D22   D(5,2,25,19)            1.8132         estimate D2E/DX2                !
 ! D23   D(6,2,25,1)            -0.0795         estimate D2E/DX2                !
 ! D24   D(6,2,25,19)          179.6375         estimate D2E/DX2                !
 ! D25   D(1,3,7,13)            -0.3523         estimate D2E/DX2                !
 ! D26   D(1,3,7,14)           179.9252         estimate D2E/DX2                !
 ! D27   D(8,3,7,13)           179.0339         estimate D2E/DX2                !
 ! D28   D(8,3,7,14)            -0.6886         estimate D2E/DX2                !
 ! D29   D(1,4,6,2)             -0.1673         estimate D2E/DX2                !
 ! D30   D(1,4,6,12)           179.0789         estimate D2E/DX2                !
 ! D31   D(9,4,6,2)            179.0231         estimate D2E/DX2                !
 ! D32   D(9,4,6,12)            -1.7307         estimate D2E/DX2                !
 ! D33   D(1,4,9,13)             0.3522         estimate D2E/DX2                !
 ! D34   D(1,4,9,15)          -179.9566         estimate D2E/DX2                !
 ! D35   D(6,4,9,13)          -178.7563         estimate D2E/DX2                !
 ! D36   D(6,4,9,15)             0.9349         estimate D2E/DX2                !
 ! D37   D(2,5,10,16)           -0.3468         estimate D2E/DX2                !
 ! D38   D(2,5,10,17)          179.8766         estimate D2E/DX2                !
 ! D39   D(11,5,10,16)         179.1425         estimate D2E/DX2                !
 ! D40   D(11,5,10,17)          -0.6341         estimate D2E/DX2                !
 ! D41   D(2,6,12,16)            0.3428         estimate D2E/DX2                !
 ! D42   D(2,6,12,18)         -179.9347         estimate D2E/DX2                !
 ! D43   D(4,6,12,16)         -178.8271         estimate D2E/DX2                !
 ! D44   D(4,6,12,18)            0.8954         estimate D2E/DX2                !
 ! D45   D(3,7,13,9)            -0.5014         estimate D2E/DX2                !
 ! D46   D(3,7,13,28)          179.9189         estimate D2E/DX2                !
 ! D47   D(14,7,13,9)          179.22           estimate D2E/DX2                !
 ! D48   D(14,7,13,28)          -0.3598         estimate D2E/DX2                !
 ! D49   D(4,9,13,7)             0.4937         estimate D2E/DX2                !
 ! D50   D(4,9,13,28)         -179.9279         estimate D2E/DX2                !
 ! D51   D(15,9,13,7)         -179.1966         estimate D2E/DX2                !
 ! D52   D(15,9,13,28)           0.3818         estimate D2E/DX2                !
 ! D53   D(5,10,16,12)          -0.4722         estimate D2E/DX2                !
 ! D54   D(5,10,16,29)         179.8966         estimate D2E/DX2                !
 ! D55   D(17,10,16,12)        179.3036         estimate D2E/DX2                !
 ! D56   D(17,10,16,29)         -0.3276         estimate D2E/DX2                !
 ! D57   D(6,12,16,10)           0.467          estimate D2E/DX2                !
 ! D58   D(6,12,16,29)        -179.9029         estimate D2E/DX2                !
 ! D59   D(18,12,16,10)       -179.2547         estimate D2E/DX2                !
 ! D60   D(18,12,16,29)          0.3754         estimate D2E/DX2                !
 ! D61   D(24,19,20,21)          0.0142         estimate D2E/DX2                !
 ! D62   D(24,19,20,33)       -179.4527         estimate D2E/DX2                !
 ! D63   D(25,19,20,21)       -179.719          estimate D2E/DX2                !
 ! D64   D(25,19,20,33)          0.8142         estimate D2E/DX2                !
 ! D65   D(20,19,24,23)          0.9578         estimate D2E/DX2                !
 ! D66   D(20,19,24,32)       -177.9022         estimate D2E/DX2                !
 ! D67   D(25,19,24,23)       -179.309          estimate D2E/DX2                !
 ! D68   D(25,19,24,32)          1.8311         estimate D2E/DX2                !
 ! D69   D(20,19,25,1)          52.5832         estimate D2E/DX2                !
 ! D70   D(20,19,25,2)        -127.0858         estimate D2E/DX2                !
 ! D71   D(24,19,25,1)        -127.1506         estimate D2E/DX2                !
 ! D72   D(24,19,25,2)          53.1804         estimate D2E/DX2                !
 ! D73   D(19,20,21,22)         -0.974          estimate D2E/DX2                !
 ! D74   D(19,20,21,30)        178.8501         estimate D2E/DX2                !
 ! D75   D(33,20,21,22)        178.4873         estimate D2E/DX2                !
 ! D76   D(33,20,21,30)         -1.6887         estimate D2E/DX2                !
 ! D77   D(20,21,22,23)          0.9896         estimate D2E/DX2                !
 ! D78   D(20,21,22,26)       -178.3847         estimate D2E/DX2                !
 ! D79   D(30,21,22,23)       -178.8362         estimate D2E/DX2                !
 ! D80   D(30,21,22,26)          1.7894         estimate D2E/DX2                !
 ! D81   D(21,22,23,24)         -0.0254         estimate D2E/DX2                !
 ! D82   D(21,22,23,31)        177.7578         estimate D2E/DX2                !
 ! D83   D(26,22,23,24)        179.3487         estimate D2E/DX2                !
 ! D84   D(26,22,23,31)         -2.8681         estimate D2E/DX2                !
 ! D85   D(21,22,26,27)        -22.7388         estimate D2E/DX2                !
 ! D86   D(21,22,26,34)       -155.4463         estimate D2E/DX2                !
 ! D87   D(21,22,26,35)         90.9173         estimate D2E/DX2                !
 ! D88   D(23,22,26,27)        157.8748         estimate D2E/DX2                !
 ! D89   D(23,22,26,34)         25.1673         estimate D2E/DX2                !
 ! D90   D(23,22,26,35)        -88.4691         estimate D2E/DX2                !
 ! D91   D(22,23,24,19)         -0.9471         estimate D2E/DX2                !
 ! D92   D(22,23,24,32)        177.9            estimate D2E/DX2                !
 ! D93   D(31,23,24,19)       -178.7084         estimate D2E/DX2                !
 ! D94   D(31,23,24,32)          0.1388         estimate D2E/DX2                !
 ! D95   D(22,26,35,36)        -88.5709         estimate D2E/DX2                !
 ! D96   D(22,26,35,37)         90.7622         estimate D2E/DX2                !
 ! D97   D(27,26,35,36)         24.867          estimate D2E/DX2                !
 ! D98   D(27,26,35,37)       -155.7998         estimate D2E/DX2                !
 ! D99   D(34,26,35,36)        157.9033         estimate D2E/DX2                !
 ! D100  D(34,26,35,37)        -22.7635         estimate D2E/DX2                !
 ! D101  D(26,35,36,38)        178.8538         estimate D2E/DX2                !
 ! D102  D(26,35,36,39)         -2.3795         estimate D2E/DX2                !
 ! D103  D(37,35,36,38)         -0.4617         estimate D2E/DX2                !
 ! D104  D(37,35,36,39)        178.3049         estimate D2E/DX2                !
 ! D105  D(26,35,37,40)       -178.8768         estimate D2E/DX2                !
 ! D106  D(26,35,37,41)          2.3957         estimate D2E/DX2                !
 ! D107  D(36,35,37,40)          0.4388         estimate D2E/DX2                !
 ! D108  D(36,35,37,41)       -178.2888         estimate D2E/DX2                !
 ! D109  D(35,36,38,42)          0.0446         estimate D2E/DX2                !
 ! D110  D(35,36,38,43)        179.6498         estimate D2E/DX2                !
 ! D111  D(39,36,38,42)       -178.7041         estimate D2E/DX2                !
 ! D112  D(39,36,38,43)          0.9011         estimate D2E/DX2                !
 ! D113  D(35,37,40,42)          0.0013         estimate D2E/DX2                !
 ! D114  D(35,37,40,44)       -179.5996         estimate D2E/DX2                !
 ! D115  D(41,37,40,42)        178.709          estimate D2E/DX2                !
 ! D116  D(41,37,40,44)         -0.8919         estimate D2E/DX2                !
 ! D117  D(36,38,42,40)          0.3862         estimate D2E/DX2                !
 ! D118  D(36,38,42,45)        179.9271         estimate D2E/DX2                !
 ! D119  D(43,38,42,40)       -179.2176         estimate D2E/DX2                !
 ! D120  D(43,38,42,45)          0.3234         estimate D2E/DX2                !
 ! D121  D(37,40,42,38)         -0.4095         estimate D2E/DX2                !
 ! D122  D(37,40,42,45)       -179.9504         estimate D2E/DX2                !
 ! D123  D(44,40,42,38)        179.1899         estimate D2E/DX2                !
 ! D124  D(44,40,42,45)         -0.351          estimate D2E/DX2                !
 --------------------------------------------------------------------------------
 Trust Radius=3.00D-01 FncErr=1.00D-07 GrdErr=1.00D-06 EigMax=2.50D+02 EigMin=1.00D-04
 Number of steps in this run=    264 maximum allowed number of steps=    270.
 GradGradGradGradGradGradGradGradGradGradGradGradGradGradGradGradGradGrad

 Leave Link  103 at Thu Aug  8 12:56:34 2024, MaxMem=  2147483648 cpu:               0.3 elap:               0.1
 (Enter /apps/gaussian/g16/l202.exe)
                          Input orientation:                          
 ---------------------------------------------------------------------
 Center     Atomic      Atomic             Coordinates (Angstroms)
 Number     Number       Type             X           Y           Z
 ---------------------------------------------------------------------
      1          6           0        3.279671   -0.962060    0.157348
      2          6           0        2.802228    1.238163   -0.110531
      3          6           0        3.223125   -2.354128    0.235250
      4          6           0        4.500976   -0.262603    0.260464
      5          6           0        2.167196    2.470246   -0.271147
      6          6           0        4.195736    1.143165    0.091837
      7          6           0        4.416446   -3.034997    0.445412
      8          1           0        2.286722   -2.889696    0.126254
      9          6           0        5.686469   -0.969871    0.471336
     10          6           0        2.961497    3.610647   -0.250116
     11          1           0        1.092833    2.540518   -0.399407
     12          6           0        4.971813    2.303884    0.109128
     13          6           0        5.636875   -2.354353    0.567968
     14          1           0        4.400441   -4.118052    0.511218
     15          1           0        6.632135   -0.443319    0.553100
     16          6           0        4.349999    3.533162   -0.067125
     17          1           0        2.493198    4.581667   -0.374811
     18          1           0        6.044675    2.243967    0.262810
     19          6           0        0.884058   -0.358052   -0.222080
     20          6           0        0.234004   -1.137052    0.740686
     21          6           0       -1.110530   -1.451131    0.587036
     22          6           0       -1.801611   -0.965878   -0.520099
     23          6           0       -1.166091   -0.189327   -1.485958
     24          6           0        0.183185    0.106374   -1.340281
     25          7           0        2.250601   -0.044455   -0.068581
     26         16           0       -3.545000   -1.333845   -0.696428
     27          8           0       -3.819313   -2.535718    0.090295
     28          1           0        6.549297   -2.917377    0.732857
     29          1           0        4.940143    4.443303   -0.057658
     30          1           0       -1.624013   -2.069291    1.314912
     31          1           0       -1.717332    0.146049   -2.357362
     32          1           0        0.706482    0.680503   -2.096725
     33          1           0        0.785037   -1.483959    1.607682
     34          8           0       -3.868976   -1.252577   -2.120160
     35          6           0       -4.344047    0.045399    0.121128
     36          6           0       -4.597041   -0.030663    1.488715
     37          6           0       -4.683595    1.171746   -0.624346
     38          6           0       -5.196226    1.053739    2.123019
     39          1           0       -4.345245   -0.933015    2.034747
     40          6           0       -5.282838    2.249680    0.021239
     41          1           0       -4.497851    1.187098   -1.692560
     42          6           0       -5.534065    2.191580    1.391378
     43          1           0       -5.405033    1.007824    3.186482
     44          1           0       -5.559265    3.131710   -0.546517
     45          1           0       -6.002115    3.034020    1.890069
 ---------------------------------------------------------------------
                    Distance matrix (angstroms):
                    1          2          3          4          5
     1  C    0.000000
     2  C    2.267309   0.000000
     3  C    1.395392   3.633356   0.000000
     4  C    1.411191   2.296885   2.451125   0.000000
     5  C    3.633446   1.395382   4.964475   3.632851   0.000000
     6  C    2.296832   1.411326   3.632850   1.448375   2.451097
     7  C    2.381660   4.601594   1.389880   2.779842   5.990015
     8  H    2.168570   4.166657   1.084234   3.438394   5.375983
     9  C    2.427205   3.678699   2.835484   1.396456   4.977044
    10  C    4.601838   2.381917   5.990206   4.199137   1.389918
    11  H    4.166568   2.168319   5.375732   4.461878   1.084271
    12  C    3.678595   2.427161   4.977036   2.613703   2.835165
    13  C    2.768303   4.626203   2.436573   2.400051   6.001628
    14  H    3.367734   5.624046   2.138612   3.864903   7.000368
    15  H    3.415366   4.235089   3.920914   2.158734   5.394805
    16  C    4.626339   2.768483   6.001788   3.812865   2.436400
    17  H    5.624468   3.368139   7.000730   5.282206   2.138954
    18  H    4.234971   3.415331   5.394848   2.943791   3.920607
    19  C    2.499551   2.497943   3.108811   3.650213   3.106142
    20  C    3.105961   3.600277   3.266739   4.382046   4.215879
    21  C    4.438208   4.798810   4.440689   5.745280   5.182390
    22  C    5.126244   5.120632   5.267425   6.389560   5.255507
    23  C    4.802330   4.435886   5.187884   5.930515   4.433948
    24  C    3.601759   3.106866   4.216350   4.619724   3.266074
    25  N    1.397150   1.396840   2.524422   2.284742   2.524225
    26  S    6.887909   6.873558   6.907714   8.173184   6.876129
    27  O    7.271621   7.624127   7.046270   8.626889   7.812081
    28  H    3.852912   5.658652   3.410027   3.386237   7.016931
    29  H    5.658740   3.853102   7.017052   4.737048   3.409951
    30  H    5.158685   5.706378   4.974088   6.472362   6.123418
    31  H    5.702781   5.164047   6.113971   6.759243   4.984350
    32  H    3.794754   2.940766   4.580457   4.565520   2.944419
    33  H    2.932413   3.798850   2.930023   4.137017   4.590871
    34  O    7.508302   7.399146   7.553758   8.758054   7.328958
    35  C    7.690082   7.248834   7.939323   8.851481   6.959170
    36  C    8.042551   7.675721   8.253766   9.183480   7.423379
    37  C    8.281170   7.503730   8.699823   9.337911   6.981704
    38  C    8.931301   8.306505   9.276998   9.961807   7.871373
    39  H    7.852695   7.771911   7.908096   9.047274   7.701378
    40  C    9.146057   8.149161   9.674309  10.104049   7.459031
    41  H    8.278338   7.469711   8.710350   9.321739   6.934676
    42  C    9.441939   8.523996   9.934207  10.392499   7.883595
    43  H    9.406390   8.847739   9.718930  10.406949   8.451777
    44  H    9.766328   8.584298  10.384409  10.648053   7.759611
    45  H   10.252928   9.205648  10.810903  11.128264   8.469140
                    6          7          8          9         10
     6  C    0.000000
     7  C    4.198901   0.000000
     8  H    4.462005   2.158402   0.000000
     9  C    2.613661   2.424536   3.919578   0.000000
    10  C    2.780062   6.838510   6.546101   5.378393   0.000000
    11  H    3.438302   6.545723   5.584704   5.846582   2.158557
    12  C    1.396375   5.378213   5.846647   3.370371   2.424470
    13  C    3.812639   1.402763   3.421290   1.388736   6.588485
    14  H    5.281874   1.085170   2.474846   3.400956   7.898290
    15  H    2.943762   3.411403   5.004955   1.085461   5.527511
    16  C    2.400240   6.588461   6.748897   4.727938   1.402650
    17  H    3.865190   7.898431   7.490992   6.460071   1.085234
    18  H    2.158604   5.527380   6.363596   3.240455   3.411289
    19  C    3.649576   4.482114   2.915137   4.890634   4.479633
    20  C    4.616895   4.602413   2.768201   5.461673   5.564311
    21  C    5.927230   5.751187   3.717944   6.814998   6.550101
    22  C    6.386760   6.624024   4.564353   7.553430   6.610951
    23  C    5.745795   6.556885   4.670454   7.169228   5.744919
    24  C    4.384799   5.565735   3.943606   5.892911   4.602978
    25  N    2.284672   3.728058   2.852133   3.599041   3.728015
    26  S    8.165533   8.220848   6.091507   9.312152   8.184235
    27  O    8.819024   8.258518   6.116392   9.641419   9.158224
    28  H    4.736893   2.155345   4.305610   2.146077   7.513564
    29  H    3.386355   7.513475   7.800471   5.489926   2.155318
    30  H    6.759088   6.178654   4.168911   7.440665   7.465783
    31  H    6.477437   7.456395   5.605046   8.003941   6.191556
    32  H    4.144726   5.833630   4.492785   5.841142   4.132893
    33  H    4.564256   4.116275   2.534913   5.057628   5.843236
    34  O    8.698971   8.854795   6.754195   9.904661   8.590889
    35  C    8.610101   9.291945   7.251338  10.087848   8.137554
    36  C    8.980093   9.558109   7.577372  10.376307   8.568207
    37  C    8.908213  10.082252   8.102100  10.645434   8.033413
    38  C    9.609508  10.579962   8.690930  11.191787   8.872316
    39  H    9.001876   9.149401   7.173140  10.152876   8.902468
    40  C    9.543203  11.053680   9.149997  11.440882   8.360318
    41  H    8.874934  10.092656   8.121500  10.632748   7.974717
    42  C    9.872032  11.279390   9.411940  11.693658   8.768285
    43  H   10.088107  10.969016   9.149795  11.588991   9.411892
    44  H    9.976064  11.769750   9.913096  12.013556   8.539357
    45  H   10.526402  12.143575  10.339549  12.436516   9.233593
                   11         12         13         14         15
    11  H    0.000000
    12  C    3.919323   0.000000
    13  C    6.748622   4.727792   0.000000
    14  H    7.490398   6.459830   2.154675   0.000000
    15  H    6.363523   3.240510   2.154719   4.299520   0.000000
    16  C    3.421240   1.388828   6.059887   7.673207   4.626578
    17  H    2.475463   3.400886   7.673325   8.950292   6.575888
    18  H    5.004719   1.085468   4.626442   6.575751   2.766023
    19  C    2.911484   4.889309   5.215234   5.200026   5.800738
    20  C    3.944860   5.889460   5.540999   5.128178   6.438364
    21  C    4.664884   7.164037   6.807617   6.122828   7.808053
    22  C    4.548317   7.547618   7.644791   7.033155   8.517799
    23  C    3.706128   6.814269   7.428748   7.099991   8.064403
    24  C    2.763650   5.464503   6.280074   6.249726   6.743590
    25  N    2.851659   3.598787   4.148213   4.642432   4.443357
    26  S    6.050488   9.296133   9.324536   8.505307  10.292154
    27  O    7.080760  10.035238   9.469982   8.381248  10.668884
    28  H    7.800233   5.489905   1.084757   2.471503   2.481962
    29  H    4.305715   2.146144   6.861849   8.597191   5.207200
    30  H    5.618762   8.005217   7.304771   6.413844   8.449149
    31  H    4.179007   7.448791   8.300237   7.989897   8.861814
    32  H    2.547511   5.068945   6.373360   6.593393   6.587709
    33  H    4.507722   5.841448   5.037750   4.605630   6.031884
    34  O    6.478280   9.786608   9.939877   9.138838  10.866211
    35  C    6.004685   9.585726  10.275081   9.692913  10.995545
    36  C    6.523085   9.945669  10.534721   9.930606  11.275640
    37  C    5.940644   9.749186  10.971194  10.573135  11.490890
    38  C    6.937248  10.440672  11.462519  11.020043  12.025637
    39  H    6.896610  10.049532  10.188933   9.431470  11.087739
    40  C    6.396148  10.255171  11.863227  11.599741  12.227089
    41  H    5.895739   9.704011  10.971077  10.591546  11.470738
    42  C    6.873460  10.584434  12.088565  11.801718  12.476451
    43  H    7.578259  10.900863  11.835733  11.383276  12.407011
    44  H    6.679937  10.583892  12.517688  12.364206  12.752263
    45  H    7.471515  11.141452  12.893743  12.699076  13.172078
                   16         17         18         19         20
    16  C    0.000000
    17  H    2.154471   0.000000
    18  H    2.154718   4.299348   0.000000
    19  C    5.213282   5.197450   5.799792   0.000000
    20  C    6.277330   6.249163   6.739700   1.398689   0.000000
    21  C    7.422161   7.092719   8.059518   2.414099   1.389254
    22  C    7.634714   7.017247   8.513534   2.769672   2.400543
    23  C    6.804209   6.114526   7.808601   2.414325   2.795781
    24  C    5.543117   5.128015   6.441760   1.399031   2.424689
    25  N    4.148110   4.642589   4.443162   1.410441   2.432148
    26  S    9.295955   8.459111  10.280211   4.560015   4.047826
    27  O   10.178101   9.524772  10.962363   5.192447   4.336894
    28  H    6.861948   8.597356   5.207212   6.289434   6.561444
    29  H    1.084766   2.471289   2.481888   6.287437   7.343396
    30  H    8.305801   8.002614   8.861145   3.403102   2.156625
    31  H    7.316435   6.429135   8.456673   3.403054   3.879686
    32  H    5.052935   4.623464   6.042196   2.150447   3.402594
    33  H    6.378514   6.606051   6.585583   2.150698   1.084280
    34  O    9.729841   8.806924  10.778907   5.195596   5.003222
    35  C    9.369438   8.220195  10.619761   5.254869   4.768710
    36  C    9.755563   8.661282  10.950932   5.751213   5.012249
    37  C    9.353748   7.949603  10.818155   5.787993   5.601486
    38  C   10.103202   8.821149  11.455779   6.668020   6.016461
    39  H    9.998593   9.109445  11.008334   5.724462   4.762956
    40  C    9.718368   8.127838  11.330090   6.700006   6.513302
    41  H    9.296801   7.882533  10.774289   5.789192   5.806273
    42  C   10.080764   8.559725  11.633728   7.091979   6.691324
    43  H   10.588859   9.372151  11.881571   7.282622   6.510081
    44  H    9.928972   8.183766  11.665956   7.334856   7.310348
    45  H   10.547323   8.927219  12.181843   7.961577   7.590000
                   21         22         23         24         25
    21  C    0.000000
    22  C    1.392412   0.000000
    23  C    2.427456   1.392767   0.000000
    24  C    2.795366   2.400383   1.388959   0.000000
    25  N    3.702131   4.180109   3.701855   2.431909   0.000000
    26  S    2.754574   1.790502   2.755447   4.048227   5.970403
    27  O    2.959829   2.628326   3.876817   5.004717   6.563192
    28  H    7.800262   8.666944   8.478951   7.346316   5.232090
    29  H    8.471755   8.655885   7.796627   6.563743   5.231991
    30  H    1.084246   2.148564   3.404237   3.879373   4.585482
    31  H    3.404214   2.149191   1.084292   2.155920   4.584681
    32  H    3.879171   3.389226   2.153177   1.084284   2.650139
    33  H    2.153130   3.389190   3.879894   3.403215   2.651397
    34  O    3.870059   2.629903   2.972928   4.344533   6.566411
    35  C    3.593370   2.810309   3.568925   4.757653   6.597988
    36  C    3.871242   3.567126   4.543707   5.556308   7.022504
    37  C    4.594967   3.589726   3.868815   5.033203   7.061947
    38  C    5.032547   4.752719   5.550848   6.467612   7.839922
    39  H    3.581577   3.605328   4.801610   5.742632   6.979879
    40  C    5.605737   4.769885   5.016772   6.027015   7.875521
    41  H    4.861147   3.644130   3.610797   4.817070   7.049513
    42  C    5.786534   5.249238   5.746910   6.670607   8.229967
    43  H    5.589842   5.533434   6.421331   7.247922   8.385193
    44  H    6.486803   5.559756   5.586753   6.538995   8.444552
    45  H    6.763289   6.281109   6.721209   7.567312   9.023339
                   26         27         28         29         30
    26  S    0.000000
    27  O    1.462422   0.000000
    28  H   10.317231  10.395510   0.000000
    29  H   10.284995  11.200745   7.575876   0.000000
    30  H    2.876901   2.556674   8.237781   9.348046   0.000000
    31  H    2.879090   4.195381   9.341905   8.250879   4.289759
    32  H    4.908516   5.967408   7.422248   6.019995   4.963048
    33  H    4.907207   4.960716   6.003890   7.427698   2.496367
    34  O    1.462388   2.556370  10.929395  10.691003   4.184089
    35  C    1.791421   2.634096  11.305627  10.274712   3.646316
    36  C    2.753166   2.972497  11.538860  10.647325   3.609031
    37  C    2.753104   3.873369  12.030827  10.180400   4.860667
    38  C    4.046775   4.348800  12.476363  10.908275   4.813217
    39  H    2.874087   2.574132  11.150052  10.931669   3.035521
    40  C    4.046823   5.004669  12.930750  10.455981   5.806384
    41  H    2.873214   4.183102  12.031992  10.116892   5.282793
    42  C    4.554551   5.194279  13.135552  10.811059   5.783543
    43  H    4.901033   4.965639  12.819262  11.373198   5.221831
    44  H    4.901114   5.962609  13.595791  10.592300   6.782443
    45  H    5.639648   6.247063  13.939018  11.203246   6.748508
                   31         32         33         34         35
    31  H    0.000000
    32  H    2.495686   0.000000
    33  H    4.963905   4.291118   0.000000
    34  O    2.577206   4.967108   5.967427   0.000000
    35  C    3.612849   5.552483   5.554843   2.633212   0.000000
    36  C    4.807937   6.441156   5.576109   3.879063   1.392870
    37  C    3.585264   5.609113   6.476160   2.962837   1.392725
    38  C    5.744599   7.265501   6.517744   5.008518   2.398025
    39  H    5.230767   6.722533   5.177424   4.194306   2.149240
    40  C    4.774499   6.543702   7.299039   4.341705   2.397949
    41  H    3.042537   5.244528   6.777540   2.555453   2.148627
    42  C    5.727539   7.307164   7.313510   5.192845   2.763290
    43  H    6.713866   8.085174   6.857008   5.969031   3.383541
    44  H    5.191703   6.904429   8.136040   4.955341   3.383463
    45  H    6.688827   8.151003   8.158266   6.245569   3.848402
                   36         37         38         39         40
    36  C    0.000000
    37  C    2.432757   0.000000
    38  C    1.391866   2.797272   0.000000
    39  H    1.084339   3.408119   2.163135   0.000000
    40  C    2.797100   1.392054   2.419764   3.881088   0.000000
    41  H    3.407828   1.084351   3.881257   4.290802   2.163884
    42  C    2.413680   2.413815   1.394316   3.404455   1.394192
    43  H    2.147957   3.881978   1.084741   2.493291   3.402338
    44  H    3.881836   2.148095   3.402379   4.965759   1.084774
    45  H    3.395232   3.395415   2.150636   4.301571   2.150599
                   41         42         43         44         45
    41  H    0.000000
    42  C    3.404908   0.000000
    43  H    4.965901   2.154142   0.000000
    44  H    2.494300   2.154047   4.297669   0.000000
    45  H    4.302228   1.085112   2.478440   2.478429   0.000000
 Stoichiometry    C24H17NO2S
 Framework group  C1[X(C24H17NO2S)]
 Deg. of freedom   129
 Full point group                 C1      NOp   1
 Largest Abelian subgroup         C1      NOp   1
 Largest concise Abelian subgroup C1      NOp   1
                         Standard orientation:                         
 ---------------------------------------------------------------------
 Center     Atomic      Atomic             Coordinates (Angstroms)
 Number     Number       Type             X           Y           Z
 ---------------------------------------------------------------------
      1          6           0        3.283757   -0.956976    0.161970
      2          6           0        2.809099    1.237292   -0.155173
      3          6           0        3.225004   -2.346717    0.272811
      4          6           0        4.506852   -0.257705    0.242695
      5          6           0        2.175580    2.466518   -0.341586
      6          6           0        4.203404    1.144318    0.042592
      7          6           0        4.418073   -3.024821    0.493099
      8          1           0        2.287083   -2.882846    0.180974
      9          6           0        5.692047   -0.962168    0.464351
     10          6           0        2.972094    3.605527   -0.351200
     11          1           0        1.100733    2.535882   -0.466236
     12          6           0        4.981714    2.303588    0.028851
     13          6           0        5.640353   -2.343900    0.593704
     14          1           0        4.400376   -4.106000    0.584395
     15          1           0        6.639081   -0.435711    0.529130
     16          6           0        4.361331    3.529617   -0.173192
     17          1           0        2.504996    4.574276   -0.496383
     18          1           0        6.055204    2.245176    0.178680
     19          6           0        0.887439   -0.357310   -0.219885
     20          6           0        0.240668   -1.112212    0.764056
     21          6           0       -1.105186   -1.427155    0.624361
     22          6           0       -1.800786   -0.966658   -0.490490
     23          6           0       -1.168570   -0.214247   -1.477395
     24          6           0        0.181953    0.082126   -1.345262
     25          7           0        2.255299   -0.042896   -0.080437
     26         16           0       -3.545701   -1.335218   -0.649653
     27          8           0       -3.818386   -2.517750    0.166399
     28          1           0        6.552524   -2.904700    0.767331
     29          1           0        4.953206    4.438562   -0.187968
     30          1           0       -1.616240   -2.027045    1.369039
     31          1           0       -1.723455    0.101671   -2.353743
     32          1           0        0.702599    0.637308   -2.117514
     33          1           0        0.795302   -1.439762    1.636269
     34          8           0       -3.876507   -1.286750   -2.073308
     35          6           0       -4.338160    0.064410    0.139167
     36          6           0       -4.584582    0.020968    1.509377
     37          6           0       -4.679266    1.173618   -0.630889
     38          6           0       -5.178629    1.121141    2.120949
     39          1           0       -4.331789   -0.868815    2.075216
     40          6           0       -5.273328    2.267589   -0.007887
     41          1           0       -4.498737    1.163527   -1.700059
     42          6           0       -5.517937    2.242161    1.364444
     43          1           0       -5.382301    1.100612    3.186200
     44          1           0       -5.550896    3.136595   -0.594847
     45          1           0       -5.981966    3.096996    1.845486
 ---------------------------------------------------------------------
 Rotational constants (GHZ):           0.3249475           0.0853854           0.0736747
 Leave Link  202 at Thu Aug  8 12:56:34 2024, MaxMem=  2147483648 cpu:               0.1 elap:               0.0
 (Enter /apps/gaussian/g16/l301.exe)
 Standard basis: 6-31G(d,p) (6D, 7F)
 Ernie: Thresh=  0.10000D-02 Tol=  0.10000D-05 Strict=F.
 There are   509 symmetry adapted cartesian basis functions of A   symmetry.
 There are   509 symmetry adapted basis functions of A   symmetry.
   509 basis functions,   927 primitive gaussians,   509 cartesian basis functions
   100 alpha electrons      100 beta electrons
       nuclear repulsion energy      2531.1617401933 Hartrees.
 IExCor= 4639 DFT=T Ex+Corr=wB97XD ExCW=0 ScaHFX=  1.000000
 ScaDFX=  1.000000  1.000000  1.000000  1.000000 ScalE2=  1.000000  1.000000
 IRadAn=      5 IRanWt=     -1 IRanGd=            0 ICorTp=0 IEmpDi=121
 HFx  wShort=  0.000000 wLong=  0.158200 cFull=  0.222036 cShort=  0.000000 cLong=  0.777964
 DFx  wShort=  0.000000 wLong=  0.158200 cFull=  0.000000 cShort=  0.000000 cLong=  1.000000
 NAtoms=   45 NActive=   45 NUniq=   45 SFac= 1.00D+00 NAtFMM=   60 NAOKFM=F Big=F
 Integral buffers will be    131072 words long.
 Raffenetti 1 integral format.
 Two-electron integral symmetry is turned on.
 R6Disp:  Grimme-D2 Dispersion energy=       -0.0339556166 Hartrees.
 Nuclear repulsion after empirical dispersion term =     2531.1277845767 Hartrees.
 Leave Link  301 at Thu Aug  8 12:56:34 2024, MaxMem=  2147483648 cpu:               0.9 elap:               0.1
 (Enter /apps/gaussian/g16/l302.exe)
 NPDir=0 NMtPBC=     1 NCelOv=     1 NCel=       1 NClECP=     1 NCelD=      1
         NCelK=      1 NCelE2=     1 NClLst=     1 CellRange=     0.0.
 One-electron integrals computed using PRISM.
 One-electron integral symmetry used in STVInt
 NBasis=   509 RedAO= T EigKep=  2.78D-04  NBF=   509
 NBsUse=   509 1.00D-06 EigRej= -1.00D+00 NBFU=   509
 Precomputing XC quadrature grid using
 IXCGrd= 4 IRadAn=           5 IRanWt=          -1 IRanGd=           0 AccXCQ= 0.00D+00.
 Generated NRdTot=       0 NPtTot=           0 NUsed=           0 NTot=          32
 NSgBfM=   497   497   497   497   497 MxSgAt=    45 MxSgA2=    45.
 Leave Link  302 at Thu Aug  8 12:56:35 2024, MaxMem=  2147483648 cpu:               7.6 elap:               0.5
 (Enter /apps/gaussian/g16/l303.exe)
 DipDrv:  MaxL=1.
 Leave Link  303 at Thu Aug  8 12:56:35 2024, MaxMem=  2147483648 cpu:               0.7 elap:               0.1
 (Enter /apps/gaussian/g16/l308.exe)
 Leave Link  308 at Thu Aug  8 12:56:35 2024, MaxMem=  2147483648 cpu:               0.8 elap:               0.1
 (Enter /apps/gaussian/g16/l401.exe)
 ExpMin= 1.17D-01 ExpMax= 2.19D+04 ExpMxC= 3.30D+03 IAcc=3 IRadAn=         5 AccDes= 0.00D+00
 Harris functional with IExCor= 4639 and IRadAn=       5 diagonalized for initial guess.
 HarFok:  IExCor= 4639 AccDes= 0.00D+00 IRadAn=         5 IDoV= 1 UseB2=F ITyADJ=14
 ICtDFT=  3500011 ScaDFX=  1.000000  1.000000  1.000000  1.000000
 FoFCou: FMM=F IPFlag=           0 FMFlag=      100000 FMFlg1=           0
         NFxFlg=           0 DoJE=T BraDBF=F KetDBF=T FulRan=T
         wScrn=  0.000000 ICntrl=       500 IOpCl=  0 I1Cent=   200000004 NGrid=           0
         NMat0=    1 NMatS0=      1 NMatT0=    0 NMatD0=    1 NMtDS0=    0 NMtDT0=    0
 Petite list used in FoFCou.
 Harris En= -1475.05630461184    
 JPrj=0 DoOrth=F DoCkMO=F.
 Leave Link  401 at Thu Aug  8 12:56:37 2024, MaxMem=  2147483648 cpu:              23.4 elap:               1.5
 (Enter /apps/gaussian/g16/l502.exe)
 Integral symmetry usage will be decided dynamically.
 Closed shell SCF:
 Using DIIS extrapolation, IDIIS=  1040.
 NGot=  2147483648 LenX=  2146951019 LenY=  2146691429
 Requested convergence on RMS density matrix=1.00D-08 within 128 cycles.
 Requested convergence on MAX density matrix=1.00D-06.
 Requested convergence on             energy=1.00D-06.
 No special actions if energy rises.
 Fock matrices will be formed incrementally for  20 cycles.
 Integral accuracy reduced to 1.0D-05 until final iterations.

 Cycle   1  Pass 0  IDiag  1:
 FoFJK:  IHMeth= 1 ICntrl=       0 DoSepK=T KAlg= 0 I1Cent=           0 FoldK=F
 IRaf=         1 NMat=       1 IRICut=       1 DoRegI=T DoRafI=F ISym2E= 0 IDoP0=0 IntGTp=1.
 FoFCou: FMM=F IPFlag=           0 FMFlag=      100000 FMFlg1=           0
         NFxFlg=           0 DoJE=T BraDBF=F KetDBF=F FulRan=T
         wScrn=  0.000000 ICntrl=       500 IOpCl=  0 I1Cent=           0 NGrid=           0
         NMat0=    1 NMatS0=      1 NMatT0=    0 NMatD0=    1 NMtDS0=    0 NMtDT0=    0
 Symmetry not used in FoFCou.
 E= -1527.38173776936    
 DIIS: error= 7.94D-02 at cycle   1 NSaved=   1.
 NSaved= 1 IEnMin= 1 EnMin= -1527.38173776936     IErMin= 1 ErrMin= 7.94D-02
 ErrMax= 7.94D-02  0.00D+00 EMaxC= 1.00D-01 BMatC= 1.39D+00 BMatP= 1.39D+00
 IDIUse=3 WtCom= 2.06D-01 WtEn= 7.94D-01
 Coeff-Com:  0.100D+01
 Coeff-En:   0.100D+01
 Coeff:      0.100D+01
 Gap=     0.371 Goal=   None    Shift=    0.000
 GapD=    0.371 DampG=1.000 DampE=0.500 DampFc=0.5000 IDamp=-1.
 Damping current iteration by 5.00D-01
 RMSDP=3.13D-03 MaxDP=4.54D-01              OVMax= 2.01D-01

 Cycle   2  Pass 0  IDiag  1:
 RMSU=  1.57D-03    CP:  1.00D+00
 E= -1527.58281619313     Delta-E=       -0.201078423771 Rises=F Damp=T
 DIIS: error= 4.06D-02 at cycle   2 NSaved=   2.
 NSaved= 2 IEnMin= 2 EnMin= -1527.58281619313     IErMin= 2 ErrMin= 4.06D-02
 ErrMax= 4.06D-02  0.00D+00 EMaxC= 1.00D-01 BMatC= 2.72D-01 BMatP= 1.39D+00
 IDIUse=3 WtCom= 5.94D-01 WtEn= 4.06D-01
 Coeff-Com: -0.377D+00 0.138D+01
 Coeff-En:   0.000D+00 0.100D+01
 Coeff:     -0.224D+00 0.122D+01
 Gap=     0.319 Goal=   None    Shift=    0.000
 RMSDP=1.19D-03 MaxDP=6.51D-02 DE=-2.01D-01 OVMax= 2.15D-01

 Cycle   3  Pass 0  IDiag  1:
 RMSU=  1.19D-03    CP:  1.00D+00  9.72D-01
 E= -1527.73992972222     Delta-E=       -0.157113529082 Rises=F Damp=F
 DIIS: error= 1.21D-02 at cycle   3 NSaved=   3.
 NSaved= 3 IEnMin= 3 EnMin= -1527.73992972222     IErMin= 3 ErrMin= 1.21D-02
 ErrMax= 1.21D-02  0.00D+00 EMaxC= 1.00D-01 BMatC= 9.72D-02 BMatP= 2.72D-01
 IDIUse=3 WtCom= 8.79D-01 WtEn= 1.21D-01
 Coeff-Com: -0.285D+00 0.646D+00 0.639D+00
 Coeff-En:   0.000D+00 0.000D+00 0.100D+01
 Coeff:     -0.251D+00 0.568D+00 0.683D+00
 Gap=     0.289 Goal=   None    Shift=    0.000
 RMSDP=8.12D-04 MaxDP=6.55D-02 DE=-1.57D-01 OVMax= 1.00D-01

 Cycle   4  Pass 0  IDiag  1:
 RMSU=  4.55D-04    CP:  1.00D+00  1.25D+00  5.75D-01
 E= -1527.81714266181     Delta-E=       -0.077212939595 Rises=F Damp=F
 DIIS: error= 4.14D-03 at cycle   4 NSaved=   4.
 NSaved= 4 IEnMin= 4 EnMin= -1527.81714266181     IErMin= 4 ErrMin= 4.14D-03
 ErrMax= 4.14D-03  0.00D+00 EMaxC= 1.00D-01 BMatC= 1.19D-02 BMatP= 9.72D-02
 IDIUse=3 WtCom= 9.59D-01 WtEn= 4.14D-02
 Coeff-Com: -0.109D+00 0.230D+00 0.364D+00 0.515D+00
 Coeff-En:   0.000D+00 0.000D+00 0.670D-01 0.933D+00
 Coeff:     -0.104D+00 0.221D+00 0.352D+00 0.532D+00
 Gap=     0.266 Goal=   None    Shift=    0.000
 RMSDP=2.52D-04 MaxDP=1.39D-02 DE=-7.72D-02 OVMax= 2.34D-02

 Cycle   5  Pass 0  IDiag  1:
 RMSU=  9.71D-05    CP:  1.00D+00  1.23D+00  6.93D-01  6.07D-01
 E= -1527.82770171482     Delta-E=       -0.010559053012 Rises=F Damp=F
 DIIS: error= 4.07D-04 at cycle   5 NSaved=   5.
 NSaved= 5 IEnMin= 5 EnMin= -1527.82770171482     IErMin= 5 ErrMin= 4.07D-04
 ErrMax= 4.07D-04  0.00D+00 EMaxC= 1.00D-01 BMatC= 1.07D-04 BMatP= 1.19D-02
 IDIUse=3 WtCom= 9.96D-01 WtEn= 4.07D-03
 Coeff-Com: -0.125D-01 0.247D-01 0.555D-01 0.140D+00 0.793D+00
 Coeff-En:   0.000D+00 0.000D+00 0.000D+00 0.000D+00 0.100D+01
 Coeff:     -0.125D-01 0.246D-01 0.552D-01 0.139D+00 0.793D+00
 Gap=     0.265 Goal=   None    Shift=    0.000
 RMSDP=3.37D-05 MaxDP=1.49D-03 DE=-1.06D-02 OVMax= 4.93D-03

 Cycle   6  Pass 0  IDiag  1:
 RMSU=  2.59D-05    CP:  1.00D+00  1.23D+00  6.93D-01  6.51D-01  9.47D-01
 E= -1527.82781357948     Delta-E=       -0.000111864661 Rises=F Damp=F
 DIIS: error= 2.18D-04 at cycle   6 NSaved=   6.
 NSaved= 6 IEnMin= 6 EnMin= -1527.82781357948     IErMin= 6 ErrMin= 2.18D-04
 ErrMax= 2.18D-04  0.00D+00 EMaxC= 1.00D-01 BMatC= 2.27D-05 BMatP= 1.07D-04
 IDIUse=3 WtCom= 9.98D-01 WtEn= 2.18D-03
 Coeff-Com:  0.851D-02-0.185D-01-0.209D-01-0.631D-02 0.356D+00 0.681D+00
 Coeff-En:   0.000D+00 0.000D+00 0.000D+00 0.000D+00 0.000D+00 0.100D+01
 Coeff:      0.849D-02-0.185D-01-0.209D-01-0.629D-02 0.355D+00 0.682D+00
 Gap=     0.266 Goal=   None    Shift=    0.000
 RMSDP=1.36D-05 MaxDP=6.69D-04 DE=-1.12D-04 OVMax= 1.30D-03

 Cycle   7  Pass 0  IDiag  1:
 RMSU=  9.60D-06    CP:  1.00D+00  1.23D+00  6.97D-01  6.53D-01  1.02D+00
                    CP:  8.73D-01
 E= -1527.82783977570     Delta-E=       -0.000026196219 Rises=F Damp=F
 DIIS: error= 5.28D-05 at cycle   7 NSaved=   7.
 NSaved= 7 IEnMin= 7 EnMin= -1527.82783977570     IErMin= 7 ErrMin= 5.28D-05
 ErrMax= 5.28D-05  0.00D+00 EMaxC= 1.00D-01 BMatC= 2.05D-06 BMatP= 2.27D-05
 IDIUse=1 WtCom= 1.00D+00 WtEn= 0.00D+00
 Coeff-Com:  0.456D-02-0.960D-02-0.129D-01-0.152D-01 0.794D-01 0.288D+00
 Coeff-Com:  0.666D+00
 Coeff:      0.456D-02-0.960D-02-0.129D-01-0.152D-01 0.794D-01 0.288D+00
 Coeff:      0.666D+00
 Gap=     0.266 Goal=   None    Shift=    0.000
 RMSDP=4.56D-06 MaxDP=2.45D-04 DE=-2.62D-05 OVMax= 7.50D-04

 Initial convergence to 1.0D-05 achieved.  Increase integral accuracy.
 Cycle   8  Pass 1  IDiag  1:
 E= -1527.82786717787     Delta-E=       -0.000027402168 Rises=F Damp=F
 DIIS: error= 8.40D-05 at cycle   1 NSaved=   1.
 NSaved= 1 IEnMin= 1 EnMin= -1527.82786717787     IErMin= 1 ErrMin= 8.40D-05
 ErrMax= 8.40D-05  0.00D+00 EMaxC= 1.00D-01 BMatC= 3.23D-06 BMatP= 3.23D-06
 IDIUse=1 WtCom= 1.00D+00 WtEn= 0.00D+00
 Coeff-Com:  0.100D+01
 Coeff:      0.100D+01
 Gap=     0.266 Goal=   None    Shift=    0.000
 RMSDP=4.56D-06 MaxDP=2.45D-04 DE=-2.74D-05 OVMax= 3.31D-04

 Cycle   9  Pass 1  IDiag  1:
 RMSU=  4.18D-05    CP:  1.00D+00
 E= -1527.82786938847     Delta-E=       -0.000002210601 Rises=F Damp=F
 DIIS: error= 4.19D-05 at cycle   2 NSaved=   2.
 NSaved= 2 IEnMin= 2 EnMin= -1527.82786938847     IErMin= 2 ErrMin= 4.19D-05
 ErrMax= 4.19D-05  0.00D+00 EMaxC= 1.00D-01 BMatC= 7.57D-07 BMatP= 3.23D-06
 IDIUse=1 WtCom= 1.00D+00 WtEn= 0.00D+00
 Coeff-Com:  0.232D+00 0.768D+00
 Coeff:      0.232D+00 0.768D+00
 Gap=     0.266 Goal=   None    Shift=    0.000
 RMSDP=3.99D-06 MaxDP=2.46D-04 DE=-2.21D-06 OVMax= 4.50D-04

 Cycle  10  Pass 1  IDiag  1:
 RMSU=  3.73D-06    CP:  1.00D+00  1.03D+00
 E= -1527.82786944343     Delta-E=       -0.000000054958 Rises=F Damp=F
 DIIS: error= 3.52D-05 at cycle   3 NSaved=   3.
 NSaved= 3 IEnMin= 3 EnMin= -1527.82786944343     IErMin= 3 ErrMin= 3.52D-05
 ErrMax= 3.52D-05  0.00D+00 EMaxC= 1.00D-01 BMatC= 7.63D-07 BMatP= 7.57D-07
 IDIUse=1 WtCom= 1.00D+00 WtEn= 0.00D+00
 Coeff-Com: -0.306D-01 0.508D+00 0.523D+00
 Coeff:     -0.306D-01 0.508D+00 0.523D+00
 Gap=     0.266 Goal=   None    Shift=    0.000
 RMSDP=1.89D-06 MaxDP=1.10D-04 DE=-5.50D-08 OVMax= 1.51D-04

 Cycle  11  Pass 1  IDiag  1:
 RMSU=  5.87D-07    CP:  1.00D+00  1.05D+00  5.57D-01
 E= -1527.82787014492     Delta-E=       -0.000000701495 Rises=F Damp=F
 DIIS: error= 2.25D-06 at cycle   4 NSaved=   4.
 NSaved= 4 IEnMin= 4 EnMin= -1527.82787014492     IErMin= 4 ErrMin= 2.25D-06
 ErrMax= 2.25D-06  0.00D+00 EMaxC= 1.00D-01 BMatC= 3.43D-09 BMatP= 7.57D-07
 IDIUse=1 WtCom= 1.00D+00 WtEn= 0.00D+00
 Coeff-Com: -0.134D-01 0.145D+00 0.150D+00 0.718D+00
 Coeff:     -0.134D-01 0.145D+00 0.150D+00 0.718D+00
 Gap=     0.266 Goal=   None    Shift=    0.000
 RMSDP=1.93D-07 MaxDP=9.94D-06 DE=-7.01D-07 OVMax= 4.02D-05

 Cycle  12  Pass 1  IDiag  1:
 RMSU=  1.78D-07    CP:  1.00D+00  1.05D+00  5.59D-01  1.11D+00
 E= -1527.82787015047     Delta-E=       -0.000000005548 Rises=F Damp=F
 DIIS: error= 1.92D-06 at cycle   5 NSaved=   5.
 NSaved= 5 IEnMin= 5 EnMin= -1527.82787015047     IErMin= 5 ErrMin= 1.92D-06
 ErrMax= 1.92D-06  0.00D+00 EMaxC= 1.00D-01 BMatC= 6.87D-10 BMatP= 3.43D-09
 IDIUse=1 WtCom= 1.00D+00 WtEn= 0.00D+00
 Coeff-Com:  0.310D-02-0.650D-01-0.746D-01 0.191D+00 0.946D+00
 Coeff:      0.310D-02-0.650D-01-0.746D-01 0.191D+00 0.946D+00
 Gap=     0.266 Goal=   None    Shift=    0.000
 RMSDP=1.39D-07 MaxDP=9.83D-06 DE=-5.55D-09 OVMax= 3.50D-05

 Cycle  13  Pass 1  IDiag  1:
 RMSU=  8.60D-08    CP:  1.00D+00  1.05D+00  5.58D-01  1.29D+00  1.14D+00
 E= -1527.82787015257     Delta-E=       -0.000000002094 Rises=F Damp=F
 DIIS: error= 6.36D-07 at cycle   6 NSaved=   6.
 NSaved= 6 IEnMin= 6 EnMin= -1527.82787015257     IErMin= 6 ErrMin= 6.36D-07
 ErrMax= 6.36D-07  0.00D+00 EMaxC= 1.00D-01 BMatC= 1.55D-10 BMatP= 6.87D-10
 IDIUse=1 WtCom= 1.00D+00 WtEn= 0.00D+00
 Coeff-Com:  0.282D-02-0.464D-01-0.520D-01-0.149D-01 0.412D+00 0.698D+00
 Coeff:      0.282D-02-0.464D-01-0.520D-01-0.149D-01 0.412D+00 0.698D+00
 Gap=     0.266 Goal=   None    Shift=    0.000
 RMSDP=5.23D-08 MaxDP=3.19D-06 DE=-2.09D-09 OVMax= 1.20D-05

 Cycle  14  Pass 1  IDiag  1:
 RMSU=  3.52D-08    CP:  1.00D+00  1.05D+00  5.59D-01  1.34D+00  1.28D+00
                    CP:  1.08D+00
 E= -1527.82787015289     Delta-E=       -0.000000000324 Rises=F Damp=F
 DIIS: error= 2.71D-07 at cycle   7 NSaved=   7.
 NSaved= 7 IEnMin= 7 EnMin= -1527.82787015289     IErMin= 7 ErrMin= 2.71D-07
 ErrMax= 2.71D-07  0.00D+00 EMaxC= 1.00D-01 BMatC= 2.33D-11 BMatP= 1.55D-10
 IDIUse=1 WtCom= 1.00D+00 WtEn= 0.00D+00
 Coeff-Com:  0.471D-03-0.422D-02-0.489D-02-0.425D-01-0.224D-01 0.273D+00
 Coeff-Com:  0.800D+00
 Coeff:      0.471D-03-0.422D-02-0.489D-02-0.425D-01-0.224D-01 0.273D+00
 Coeff:      0.800D+00
 Gap=     0.266 Goal=   None    Shift=    0.000
 RMSDP=2.35D-08 MaxDP=1.23D-06 DE=-3.24D-10 OVMax= 6.86D-06

 Cycle  15  Pass 1  IDiag  1:
 RMSU=  1.39D-08    CP:  1.00D+00  1.05D+00  5.59D-01  1.36D+00  1.33D+00
                    CP:  1.24D+00  1.02D+00
 E= -1527.82787015298     Delta-E=       -0.000000000093 Rises=F Damp=F
 DIIS: error= 2.16D-07 at cycle   8 NSaved=   8.
 NSaved= 8 IEnMin= 8 EnMin= -1527.82787015298     IErMin= 8 ErrMin= 2.16D-07
 ErrMax= 2.16D-07  0.00D+00 EMaxC= 1.00D-01 BMatC= 5.16D-12 BMatP= 2.33D-11
 IDIUse=1 WtCom= 1.00D+00 WtEn= 0.00D+00
 Coeff-Com: -0.301D-03 0.664D-02 0.731D-02-0.175D-01-0.898D-01 0.594D-03
 Coeff-Com:  0.352D+00 0.741D+00
 Coeff:     -0.301D-03 0.664D-02 0.731D-02-0.175D-01-0.898D-01 0.594D-03
 Coeff:      0.352D+00 0.741D+00
 Gap=     0.266 Goal=   None    Shift=    0.000
 RMSDP=1.08D-08 MaxDP=4.10D-07 DE=-9.32D-11 OVMax= 2.54D-06

 Cycle  16  Pass 1  IDiag  1:
 RMSU=  6.32D-09    CP:  1.00D+00  1.05D+00  5.59D-01  1.36D+00  1.35D+00
                    CP:  1.31D+00  1.16D+00  1.03D+00
 E= -1527.82787015298     Delta-E=       -0.000000000001 Rises=F Damp=F
 DIIS: error= 5.33D-08 at cycle   9 NSaved=   9.
 NSaved= 9 IEnMin= 9 EnMin= -1527.82787015298     IErMin= 9 ErrMin= 5.33D-08
 ErrMax= 5.33D-08  0.00D+00 EMaxC= 1.00D-01 BMatC= 6.98D-13 BMatP= 5.16D-12
 IDIUse=1 WtCom= 1.00D+00 WtEn= 0.00D+00
 Coeff-Com: -0.165D-03 0.269D-02 0.314D-02 0.245D-02-0.248D-01-0.416D-01
 Coeff-Com: -0.450D-01 0.224D+00 0.879D+00
 Coeff:     -0.165D-03 0.269D-02 0.314D-02 0.245D-02-0.248D-01-0.416D-01
 Coeff:     -0.450D-01 0.224D+00 0.879D+00
 Gap=     0.266 Goal=   None    Shift=    0.000
 RMSDP=4.68D-09 MaxDP=1.92D-07 DE=-9.09D-13 OVMax= 1.30D-06

 SCF Done:  E(RwB97XD) =  -1527.82787015     A.U. after   16 cycles
            NFock= 16  Conv=0.47D-08     -V/T= 2.0078
 KE= 1.516025818439D+03 PE=-8.628858642465D+03 EE= 3.053877169297D+03
 Leave Link  502 at Thu Aug  8 12:58:20 2024, MaxMem=  2147483648 cpu:            1116.9 elap:             103.4
 (Enter /apps/gaussian/g16/l801.exe)
 DoSCS=F DFT=T ScalE2(SS,OS)=  1.000000  1.000000
 ExpMin= 1.17D-01 ExpMax= 2.19D+04 ExpMxC= 3.30D+03 IAcc=3 IRadAn=         5 AccDes= 0.00D+00
 HarFok:  IExCor=  205 AccDes= 0.00D+00 IRadAn=         5 IDoV=-2 UseB2=F ITyADJ=14
 ICtDFT= 12500011 ScaDFX=  1.000000  1.000000  1.000000  1.000000
 GSVD:  LWork=       -1280 too small for GESVD, short by        5600 words or        5600 for optimal perf.
 Largest valence mixing into a core orbital is  1.64D-04
 Largest core mixing into a valence orbital is  3.35D-05
 Range of M.O.s used for correlation:    33   509
 NBasis=   509 NAE=   100 NBE=   100 NFC=    32 NFV=     0
 NROrb=    477 NOA=    68 NOB=    68 NVA=   409 NVB=   409

 **** Warning!!: The largest alpha MO coefficient is  0.11596916D+02

 Leave Link  801 at Thu Aug  8 12:58:23 2024, MaxMem=  2147483648 cpu:              14.8 elap:               2.0
 (Enter /apps/gaussian/g16/l914.exe)
 RHF ground state
 Two-electron integrals replicated using symmetry.
 MDV=  2147483648 DFT=T DoStab=F Mixed=T DoRPA=F DoScal=F NonHer=F
 Making orbital integer symmetry assigments:
 Orbital symmetries:
       Occupied  (A) (A) (A) (A) (A) (A) (A) (A) (A) (A) (A) (A)
                 (A) (A) (A) (A) (A) (A) (A) (A) (A) (A) (A) (A)
                 (A) (A) (A) (A) (A) (A) (A) (A) (A) (A) (A) (A)
                 (A) (A) (A) (A) (A) (A) (A) (A) (A) (A) (A) (A)
                 (A) (A) (A) (A) (A) (A) (A) (A) (A) (A) (A) (A)
                 (A) (A) (A) (A) (A) (A) (A) (A) (A) (A) (A) (A)
                 (A) (A) (A) (A) (A) (A) (A) (A) (A) (A) (A) (A)
                 (A) (A) (A) (A) (A) (A) (A) (A) (A) (A) (A) (A)
                 (A) (A) (A) (A)
       Virtual   (A) (A) (A) (A) (A) (A) (A) (A) (A) (A) (A) (A)
                 (A) (A) (A) (A) (A) (A) (A) (A) (A) (A) (A) (A)
                 (A) (A) (A) (A) (A) (A) (A) (A) (A) (A) (A) (A)
                 (A) (A) (A) (A) (A) (A) (A) (A) (A) (A) (A) (A)
                 (A) (A) (A) (A) (A) (A) (A) (A) (A) (A) (A) (A)
                 (A) (A) (A) (A) (A) (A) (A) (A) (A) (A) (A) (A)
                 (A) (A) (A) (A) (A) (A) (A) (A) (A) (A) (A) (A)
                 (A) (A) (A) (A) (A) (A) (A) (A) (A) (A) (A) (A)
                 (A) (A) (A) (A) (A) (A) (A) (A) (A) (A) (A) (A)
                 (A) (A) (A) (A) (A) (A) (A) (A) (A) (A) (A) (A)
                 (A) (A) (A) (A) (A) (A) (A) (A) (A) (A) (A) (A)
                 (A) (A) (A) (A) (A) (A) (A) (A) (A) (A) (A) (A)
                 (A) (A) (A) (A) (A) (A) (A) (A) (A) (A) (A) (A)
                 (A) (A) (A) (A) (A) (A) (A) (A) (A) (A) (A) (A)
                 (A) (A) (A) (A) (A) (A) (A) (A) (A) (A) (A) (A)
                 (A) (A) (A) (A) (A) (A) (A) (A) (A) (A) (A) (A)
                 (A) (A) (A) (A) (A) (A) (A) (A) (A) (A) (A) (A)
                 (A) (A) (A) (A) (A) (A) (A) (A) (A) (A) (A) (A)
                 (A) (A) (A) (A) (A) (A) (A) (A) (A) (A) (A) (A)
                 (A) (A) (A) (A) (A) (A) (A) (A) (A) (A) (A) (A)
                 (A) (A) (A) (A) (A) (A) (A) (A) (A) (A) (A) (A)
                 (A) (A) (A) (A) (A) (A) (A) (A) (A) (A) (A) (A)
                 (A) (A) (A) (A) (A) (A) (A) (A) (A) (A) (A) (A)
                 (A) (A) (A) (A) (A) (A) (A) (A) (A) (A) (A) (A)
                 (A) (A) (A) (A) (A) (A) (A) (A) (A) (A) (A) (A)
                 (A) (A) (A) (A) (A) (A) (A) (A) (A) (A) (A) (A)
                 (A) (A) (A) (A) (A) (A) (A) (A) (A) (A) (A) (A)
                 (A) (A) (A) (A) (A) (A) (A) (A) (A) (A) (A) (A)
                 (A) (A) (A) (A) (A) (A) (A) (A) (A) (A) (A) (A)
                 (A) (A) (A) (A) (A) (A) (A) (A) (A) (A) (A) (A)
                 (A) (A) (A) (A) (A) (A) (A) (A) (A) (A) (A) (A)
                 (A) (A) (A) (A) (A) (A) (A) (A) (A) (A) (A) (A)
                 (A) (A) (A) (A) (A) (A) (A) (A) (A) (A) (A) (A)
                 (A) (A) (A) (A) (A) (A) (A) (A) (A) (A) (A) (A)
                 (A)
    16 initial guesses have been made.
 Convergence on wavefunction:    0.000001000000000
 Davidson Disk Diagonalization:  ConvIn= 1.00D-06 SkipCon=T Conv= 1.00D-06.
 Max sub-space:  2000 roots to seek:    16 dimension of matrix:        55624
 Iteration     1 Dimension    16 NMult     0 NNew     16
 CISAX will form    16 AO SS matrices at one time.
 NMat=    16 NSing=    16 JSym2X= 0.
 FoFJK:  IHMeth= 1 ICntrl=       0 DoSepK=T KAlg= 0 I1Cent=           0 FoldK=F
 IRaf=         1 NMat=      32 IRICut=       1 DoRegI=T DoRafI=F ISym2E= 0 IDoP0=0 IntGTp=1.
 FoFCou: FMM=F IPFlag=           0 FMFlag=      100000 FMFlg1=           0
         NFxFlg=           0 DoJE=F BraDBF=F KetDBF=F FulRan=T
         wScrn=  0.000000 ICntrl=       500 IOpCl=  0 I1Cent=           0 NGrid=           0
         NMat0=   16 NMatS0=     16 NMatT0=    0 NMatD0=   16 NMtDS0=    0 NMtDT0=    0
 Symmetry not used in FoFCou.
 New state      2 was old state      3
 New state      3 was old state      4
 New state      4 was old state      2
 Excitation Energies [eV] at current iteration:
 Root      1 :     4.561082355281419
 Root      2 :     4.835555741330313
 Root      3 :     5.003587123368056
 Root      4 :     5.131227355233752
 Root      5 :     5.392836156828953
 Root      6 :     5.735395737525821
 Root      7 :     6.121433499364169
 Root      8 :     6.418543712349667
 Root      9 :     6.476467764513417
 Root     10 :     6.481427410767462
 Root     11 :     6.608902108748780
 Root     12 :     6.697068444537587
 Root     13 :     6.752869776148512
 Root     14 :     7.019807111023331
 Root     15 :     7.111906102990110
 Root     16 :     7.381483019080117
 Iteration     2 Dimension    32 NMult    16 NNew     16
 CISAX will form    16 AO SS matrices at one time.
 NMat=    16 NSing=    16 JSym2X= 0.
 Root      1 not converged, maximum delta is    0.032028128647033
 Root      2 not converged, maximum delta is    0.057337523935385
 Root      3 not converged, maximum delta is    0.051262306123156
 Root      4 not converged, maximum delta is    0.378810471198194
 Excitation Energies [eV] at current iteration:
 Root      1 :     4.361937677172613   Change is   -0.199144678108806
 Root      2 :     4.548504823528015   Change is   -0.287050917802298
 Root      3 :     4.854999093426670   Change is   -0.148588029941385
 Root      4 :     5.034852091468038   Change is   -0.096375263765714
 Root      5 :     5.056885320948025   Change is   -0.335950835880929
 Root      6 :     5.715805485253042   Change is   -0.019590252272779
 Root      7 :     5.894408809453844   Change is   -0.227024689910326
 Root      8 :     5.902418483000815   Change is   -0.706483625747965
 Root      9 :     5.927028881798106   Change is   -0.549438882715310
 Root     10 :     6.032057976688545   Change is   -0.987749134334786
 Root     11 :     6.101024122765060   Change is   -0.317519589584606
 Root     12 :     6.174310017520678   Change is   -1.207173001559439
 Root     13 :     6.272895324686948   Change is   -0.424173119850639
 Root     14 :     6.483688710166321   Change is    0.002261299398859
 Root     15 :     6.671137928572701   Change is   -0.081731847575811
 Root     16 :     7.105180512204976   Change is   -0.006725590785134
 Iteration     3 Dimension    36 NMult    32 NNew      4
 CISAX will form     4 AO SS matrices at one time.
 NMat=     4 NSing=     4 JSym2X= 0.
 Root      1 not converged, maximum delta is    0.023518543949588
 Root      2 not converged, maximum delta is    0.037707986250775
 Root      3 not converged, maximum delta is    0.036068539975290
 Root      4 not converged, maximum delta is    0.051543088253147
 Excitation Energies [eV] at current iteration:
 Root      1 :     4.314043032462378   Change is   -0.047894644710236
 Root      2 :     4.496706348295058   Change is   -0.051798475232957
[...]
     1  C    0.279097  -0.000000   0.000000   0.000925   0.000005  -0.000002
     2  C    0.280153   0.000000   0.000000   0.000005   0.000930   0.000001
     3  C   -0.087436   0.000000   0.000000   0.003812  -0.000000   0.000003
     4  C   -0.054281   0.000000   0.000000   0.001615  -0.000185   0.000000
     5  C   -0.087825   0.000000  -0.000000  -0.000000   0.003798   0.000000
     6  C   -0.054729   0.000000  -0.000000  -0.000185   0.001604  -0.000000
     7  C    0.005248  -0.000000   0.000000  -0.035774  -0.000000   0.000000
     8  H   -0.006953   0.000000   0.000000  -0.000136   0.000000  -0.000003
     9  C    0.010134  -0.000000  -0.000000  -0.032232  -0.000001   0.000000
    10  C    0.005251  -0.000000  -0.000000  -0.000000  -0.035880   0.000000
    11  H   -0.007135  -0.000001   0.000000   0.000000  -0.000137  -0.000000
    12  C    0.010111   0.000000  -0.000000  -0.000001  -0.032156   0.000000
    13  C   -0.000298   0.000000  -0.000000   0.377956  -0.000000  -0.000000
    14  H   -0.000094   0.000000   0.000000  -0.004357  -0.000000   0.000000
    15  H   -0.000089   0.000000  -0.000000  -0.003644   0.000000  -0.000000
    16  C   -0.000300   0.000000   0.000000  -0.000000   0.377879  -0.000000
    17  H   -0.000094  -0.000000  -0.000000  -0.000000  -0.004393  -0.000000
    18  H   -0.000089  -0.000000   0.000000   0.000000  -0.003632  -0.000000
    19  C    0.253687  -0.000532  -0.000009  -0.000000  -0.000000   0.002376
    20  C   -0.058372   0.002628   0.000536   0.000000   0.000000  -0.024848
    21  C    0.005402  -0.021133   0.002346   0.000000   0.000000   0.376078
    22  C    0.000264   0.177128  -0.057276  -0.000000  -0.000000  -0.039069
    23  C    0.005459  -0.020854   0.001613  -0.000000   0.000000   0.003541
    24  C   -0.058402   0.002803  -0.000041   0.000000   0.000000   0.000458
    25  N    7.324467  -0.000002   0.000000   0.000001   0.000001  -0.000104
    26  S   -0.000002  13.683274   0.432139  -0.000000  -0.000000  -0.001695
    27  O    0.000000   0.432139   8.262155  -0.000000   0.000000   0.007541
    28  H    0.000001  -0.000000  -0.000000   0.567620   0.000000  -0.000000
    29  H    0.000001  -0.000000   0.000000   0.000000   0.568184   0.000000
    30  H   -0.000104  -0.001695   0.007541  -0.000000   0.000000   0.503856
    31  H   -0.000103  -0.001214   0.000064   0.000000   0.000000  -0.000132
    32  H   -0.006040  -0.000016   0.000000  -0.000000   0.000000   0.000012
    33  H   -0.006095  -0.000021   0.000003   0.000000  -0.000000  -0.003587
    34  O   -0.000000   0.432257  -0.038453   0.000000   0.000000   0.000061
    35  C    0.000000   0.178269  -0.056881  -0.000000   0.000000   0.000049
    36  C   -0.000000  -0.020756   0.002414   0.000000   0.000000   0.000111
    37  C   -0.000000  -0.020961   0.001528   0.000000   0.000000  -0.000008
    38  C   -0.000000   0.002554   0.000483   0.000000   0.000000   0.000026
    39  H   -0.000000  -0.001456   0.007314  -0.000000   0.000000   0.000249
    40  C    0.000000   0.002571  -0.000040  -0.000000   0.000000   0.000000
    41  H   -0.000000  -0.001635   0.000061  -0.000000   0.000000  -0.000001
    42  C    0.000000  -0.000313  -0.000006  -0.000000  -0.000000   0.000000
    43  H    0.000000  -0.000044   0.000002   0.000000  -0.000000  -0.000001
    44  H   -0.000000  -0.000044   0.000000   0.000000  -0.000000  -0.000000
    45  H    0.000000   0.000004  -0.000000   0.000000   0.000000   0.000000
              31         32         33         34         35         36
     1  C    0.000001   0.000150   0.002665  -0.000000   0.000000   0.000000
     2  C   -0.000002   0.002596   0.000149   0.000000  -0.000000  -0.000000
     3  C    0.000000   0.000013   0.001765  -0.000000  -0.000000  -0.000000
     4  C   -0.000000  -0.000015  -0.000129  -0.000000  -0.000000   0.000000
     5  C    0.000001   0.001653   0.000011  -0.000000  -0.000000   0.000000
     6  C   -0.000000  -0.000130  -0.000014   0.000000   0.000000   0.000000
     7  C    0.000000  -0.000000   0.000042   0.000000  -0.000000  -0.000000
     8  H   -0.000000  -0.000001  -0.000418   0.000000  -0.000000  -0.000000
     9  C    0.000000   0.000000  -0.000005  -0.000000   0.000000   0.000000
    10  C    0.000000   0.000035  -0.000000  -0.000000   0.000000   0.000000
    11  H    0.000001  -0.000438  -0.000001  -0.000000   0.000000   0.000000
    12  C   -0.000000  -0.000004   0.000000   0.000000  -0.000000  -0.000000
    13  C   -0.000000   0.000000  -0.000002   0.000000   0.000000  -0.000000
    14  H   -0.000000   0.000000  -0.000002  -0.000000  -0.000000  -0.000000
    15  H   -0.000000  -0.000000  -0.000000   0.000000  -0.000000  -0.000000
    16  C   -0.000000  -0.000002   0.000000  -0.000000   0.000000  -0.000000
    17  H    0.000000  -0.000002   0.000000   0.000000  -0.000000   0.000000
    18  H   -0.000000  -0.000000  -0.000000  -0.000000   0.000000   0.000000
    19  C    0.002385  -0.036441  -0.036570  -0.000010   0.000019   0.000001
    20  C    0.000480   0.003868   0.378738  -0.000040  -0.000242   0.000013
    21  C    0.003500   0.000308  -0.030290   0.001555  -0.002173   0.000113
    22  C   -0.039323   0.003706   0.003696  -0.057274  -0.071328  -0.002365
    23  C    0.376044  -0.030282   0.000316   0.002318  -0.002342   0.000093
    24  C   -0.024648   0.379058   0.003896   0.000527  -0.000255  -0.000003
    25  N   -0.000103  -0.006040  -0.006095  -0.000000   0.000000  -0.000000
    26  S   -0.001214  -0.000016  -0.000021   0.432257   0.178269  -0.020756
    27  O    0.000064   0.000000   0.000003  -0.038453  -0.056881   0.002414
    28  H    0.000000  -0.000000   0.000000   0.000000  -0.000000   0.000000
    29  H    0.000000   0.000000  -0.000000   0.000000   0.000000   0.000000
    30  H   -0.000132   0.000012  -0.003587   0.000061   0.000049   0.000111
    31  H    0.503839  -0.003617   0.000012   0.007401  -0.000046  -0.000010
    32  H   -0.003617   0.521717  -0.000121   0.000003   0.000001   0.000000
    33  H    0.000012  -0.000121   0.522719   0.000000   0.000001   0.000001
    34  O    0.007401   0.000003   0.000000   8.261773  -0.056820   0.001555
    35  C   -0.000046   0.000001   0.000001  -0.056820   5.395335   0.503562
    36  C   -0.000010   0.000000   0.000001   0.001555   0.503562   4.862274
    37  C    0.000124   0.000001   0.000000   0.002344   0.504657  -0.038688
    38  C    0.000000   0.000000   0.000000  -0.000040  -0.042079   0.519029
    39  H   -0.000002   0.000000  -0.000001   0.000061  -0.041159   0.380219
    40  C    0.000026   0.000000   0.000000   0.000489  -0.042235  -0.034055
    41  H    0.000241  -0.000001  -0.000000   0.007525  -0.040902   0.003730
    42  C    0.000000  -0.000000  -0.000000  -0.000006  -0.033959  -0.040434
    43  H   -0.000000  -0.000000  -0.000000   0.000000   0.003918  -0.034885
    44  H   -0.000001  -0.000000  -0.000000   0.000002   0.003918   0.000592
    45  H    0.000000   0.000000   0.000000  -0.000000   0.000441   0.003973
              37         38         39         40         41         42
     1  C    0.000000   0.000000   0.000000   0.000000  -0.000000  -0.000000
     2  C   -0.000000  -0.000000  -0.000000  -0.000000   0.000000   0.000000
     3  C   -0.000000  -0.000000   0.000000   0.000000   0.000000   0.000000
     4  C   -0.000000  -0.000000   0.000000   0.000000   0.000000   0.000000
     5  C   -0.000000   0.000000   0.000000  -0.000000  -0.000000   0.000000
     6  C    0.000000   0.000000   0.000000  -0.000000   0.000000  -0.000000
     7  C   -0.000000  -0.000000  -0.000000   0.000000   0.000000   0.000000
     8  H   -0.000000  -0.000000  -0.000000   0.000000  -0.000000   0.000000
     9  C    0.000000  -0.000000   0.000000   0.000000   0.000000  -0.000000
    10  C    0.000000  -0.000000  -0.000000   0.000000   0.000000  -0.000000
    11  H    0.000000  -0.000000  -0.000000   0.000000   0.000000  -0.000000
    12  C   -0.000000   0.000000  -0.000000  -0.000000  -0.000000   0.000000
    13  C    0.000000  -0.000000  -0.000000  -0.000000  -0.000000   0.000000
    14  H   -0.000000  -0.000000   0.000000  -0.000000   0.000000   0.000000
    15  H   -0.000000  -0.000000  -0.000000   0.000000  -0.000000   0.000000
    16  C    0.000000  -0.000000  -0.000000   0.000000   0.000000   0.000000
    17  H   -0.000000   0.000000   0.000000  -0.000000  -0.000000  -0.000000
    18  H   -0.000000   0.000000   0.000000  -0.000000  -0.000000  -0.000000
    19  C    0.000002   0.000000  -0.000000   0.000000   0.000000  -0.000000
    20  C   -0.000001   0.000000   0.000030  -0.000000   0.000000   0.000000
    21  C    0.000091   0.000008   0.000151  -0.000003  -0.000010   0.000003
    22  C   -0.002335  -0.000238  -0.000045  -0.000239  -0.000029   0.000015
    23  C    0.000137  -0.000004  -0.000010   0.000008   0.000121   0.000003
    24  C    0.000011  -0.000000   0.000000   0.000000   0.000027   0.000000
    25  N   -0.000000  -0.000000  -0.000000   0.000000  -0.000000   0.000000
    26  S   -0.020961   0.002554  -0.001456   0.002571  -0.001635  -0.000313
    27  O    0.001528   0.000483   0.007314  -0.000040   0.000061  -0.000006
    28  H    0.000000   0.000000  -0.000000  -0.000000  -0.000000  -0.000000
    29  H    0.000000   0.000000   0.000000   0.000000   0.000000  -0.000000
    30  H   -0.000008   0.000026   0.000249   0.000000  -0.000001   0.000000
    31  H    0.000124   0.000000  -0.000002   0.000026   0.000241   0.000000
    32  H    0.000001   0.000000   0.000000   0.000000  -0.000001  -0.000000
    33  H    0.000000   0.000000  -0.000001   0.000000  -0.000000  -0.000000
    34  O    0.002344  -0.000040   0.000061   0.000489   0.007525  -0.000006
    35  C    0.504657  -0.042079  -0.041159  -0.042235  -0.040902  -0.033959
    36  C   -0.038688   0.519029   0.380219  -0.034055   0.003730  -0.040434
    37  C    4.863149  -0.034112   0.003733   0.518485   0.380231  -0.040413
    38  C   -0.034112   4.854358  -0.029807  -0.039587   0.000235   0.548897
    39  H    0.003733  -0.029807   0.511697   0.000238  -0.000126   0.003487
    40  C    0.518485  -0.039587   0.000238   4.855540  -0.029931   0.548943
    41  H    0.380231   0.000235  -0.000126  -0.029931   0.511209   0.003480
    42  C   -0.040413   0.548897   0.003487   0.548943   0.003480   4.818311
    43  H    0.000591   0.381774  -0.004111   0.003530   0.000012  -0.036050
    44  H   -0.034972   0.003531   0.000012   0.381755  -0.004101  -0.036085
    45  H    0.003968  -0.036032  -0.000126  -0.036097  -0.000125   0.381071
              43         44         45
     1  C   -0.000000  -0.000000   0.000000
     2  C    0.000000  -0.000000  -0.000000
     3  C   -0.000000   0.000000   0.000000
     4  C   -0.000000   0.000000  -0.000000
     5  C   -0.000000   0.000000   0.000000
     6  C    0.000000  -0.000000   0.000000
     7  C    0.000000   0.000000   0.000000
     8  H    0.000000  -0.000000   0.000000
     9  C   -0.000000   0.000000   0.000000
    10  C   -0.000000  -0.000000   0.000000
    11  H   -0.000000  -0.000000  -0.000000
    12  C    0.000000  -0.000000   0.000000
    13  C    0.000000  -0.000000   0.000000
    14  H    0.000000   0.000000  -0.000000
    15  H    0.000000   0.000000  -0.000000
    16  C    0.000000   0.000000  -0.000000
    17  H    0.000000  -0.000000   0.000000
    18  H   -0.000000  -0.000000   0.000000
    19  C   -0.000000  -0.000000   0.000000
    20  C    0.000000   0.000000  -0.000000
    21  C    0.000001   0.000000  -0.000000
    22  C    0.000002   0.000001   0.000000
    23  C    0.000000   0.000001  -0.000000
    24  C    0.000000   0.000000  -0.000000
    25  N    0.000000  -0.000000   0.000000
    26  S   -0.000044  -0.000044   0.000004
    27  O    0.000002   0.000000  -0.000000
    28  H    0.000000   0.000000   0.000000
    29  H   -0.000000  -0.000000   0.000000
    30  H   -0.000001  -0.000000   0.000000
    31  H   -0.000000  -0.000001   0.000000
    32  H   -0.000000  -0.000000   0.000000
    33  H   -0.000000  -0.000000   0.000000
    34  O    0.000000   0.000002  -0.000000
    35  C    0.003918   0.003918   0.000441
    36  C   -0.034885   0.000592   0.003973
    37  C    0.000591  -0.034972   0.003968
    38  C    0.381774   0.003531  -0.036032
    39  H   -0.004111   0.000012  -0.000126
    40  C    0.003530   0.381755  -0.036097
    41  H    0.000012  -0.004101  -0.000125
    42  C   -0.036050  -0.036085   0.381071
    43  H    0.544373  -0.000142  -0.004384
    44  H   -0.000142   0.544992  -0.004389
    45  H   -0.004384  -0.004389   0.548187
 Mulliken charges:
               1
     1  C    0.314331
     2  C    0.313245
     3  C   -0.155841
     4  C    0.012999
     5  C   -0.154790
     6  C    0.014381
     7  C   -0.138133
     8  H    0.139541
     9  C   -0.162341
    10  C   -0.138359
    11  H    0.134978
    12  C   -0.162006
    13  C   -0.145032
    14  H    0.133699
    15  H    0.133270
    16  C   -0.144929
    17  H    0.131321
    18  H    0.133730
    19  C    0.233302
    20  C   -0.128239
    21  C   -0.122376
    22  C   -0.197635
    23  C   -0.122355
    24  C   -0.128278
    25  N   -0.750836
    26  S    1.177048
    27  O   -0.565493
    28  H    0.124393
    29  H    0.123981
    30  H    0.175088
    31  H    0.174978
    32  H    0.163991
    33  H    0.163243
    34  O   -0.565228
    35  C   -0.199750
    36  C   -0.106488
    37  C   -0.107562
    38  C   -0.128995
    39  H    0.169651
    40  C   -0.129397
    41  H    0.169987
    42  C   -0.116945
    43  H    0.145414
    44  H    0.144929
    45  H    0.143508
 Sum of Mulliken charges =  -0.00000
 Mulliken charges with hydrogens summed into heavy atoms:
               1
     1  C    0.314331
     2  C    0.313245
     3  C   -0.016300
     4  C    0.012999
     5  C   -0.019813
     6  C    0.014381
     7  C   -0.004434
     9  C   -0.029070
    10  C   -0.007038
    12  C   -0.028276
    13  C   -0.020639
    16  C   -0.020948
    19  C    0.233302
    20  C    0.035004
    21  C    0.052713
    22  C   -0.197635
    23  C    0.052623
    24  C    0.035713
    25  N   -0.750836
    26  S    1.177048
    27  O   -0.565493
    34  O   -0.565228
    35  C   -0.199750
    36  C    0.063163
    37  C    0.062425
    38  C    0.016418
    40  C    0.015532
    42  C    0.026563
 Electronic spatial extent (au):  <R**2>=          13885.2006
 Charge=              0.0000 electrons
 Dipole moment (field-independent basis, Debye):
    X=              1.2041    Y=              4.2238    Z=              2.1916  Tot=              4.9085
 Quadrupole moment (field-independent basis, Debye-Ang):
   XX=           -162.0025   YY=           -160.3931   ZZ=           -164.6231
   XY=            -23.1825   XZ=             -9.7520   YZ=             -7.1569
 Traceless Quadrupole moment (field-independent basis, Debye-Ang):
   XX=              0.3371   YY=              1.9465   ZZ=             -2.2836
   XY=            -23.1825   XZ=             -9.7520   YZ=             -7.1569
 Octapole moment (field-independent basis, Debye-Ang**2):
  XXX=             60.4496  YYY=             30.1630  ZZZ=             11.3830  XYY=             23.4523
  XXY=            110.4951  XXZ=             67.6993  XZZ=            -48.4514  YZZ=              5.0875
  YYZ=              5.2633  XYZ=              4.1742
 Hexadecapole moment (field-independent basis, Debye-Ang**3):
 XXXX=         -13802.9787 YYYY=          -3258.7444 ZZZZ=           -916.5770 XXXY=           -450.6213
 XXXZ=           -130.9563 YYYX=           -148.5126 YYYZ=            -29.7774 ZZZX=           -104.7839
 ZZZY=             -8.3105 XXYY=          -2801.2761 XXZZ=          -2610.3549 YYZZ=           -770.8507
 XXYZ=            -28.2594 YYXZ=             -3.3097 ZZXY=            -58.2175
 N-N= 2.533113728881D+03 E-N=-8.632658651474D+03  KE= 1.515798752143D+03
 No NMR shielding tensors so no spin-rotation constants.
 Leave Link  601 at Thu Aug  8 16:09:19 2024, MaxMem=  2147483648 cpu:              12.3 elap:               1.5
 (Enter /apps/gaussian/g16/l9999.exe)
 Electronic transition elements 
                 1             2             3             4 
      1  -0.152767D+04 -0.152767D+04 -0.152765D+04 -0.152765D+04
      2   0.175273D+01  0.334476D+00 -0.478552D-01 -0.233720D+00
      3   0.196191D+00  0.111813D+00  0.169164D+00  0.105747D+01
      4   0.739261D-01  0.502665D-01  0.114613D+00 -0.103077D+00
      5  -0.165149D+00  0.729252D-01  0.332930D-03  0.909392D-02
      6   0.301583D-02  0.136214D-01 -0.140442D-01 -0.384005D-01
      7   0.566582D-02  0.605137D-02  0.271461D-01 -0.444330D-02
      8   0.176696D+00 -0.893970D-01  0.120384D+00  0.539807D-01
      9   0.299626D+00 -0.807068D-01 -0.241553D+00 -0.348570D-01
     10  -0.471946D+00  0.104949D+00 -0.574703D+00 -0.703217D+00
     11   0.255684D+00  0.974178D+00  0.341810D-01  0.188304D+00
     12  -0.484383D+00 -0.168641D+00 -0.523294D-02 -0.815081D-01
     13   0.261393D+00 -0.480709D-02 -0.189121D-01  0.608374D-02
     14  -0.893202D-01  0.232091D+00 -0.703583D-01 -0.407778D+00
     15  -0.153173D+00  0.807666D-01  0.858109D-02  0.225624D-01
     16   0.603602D-01  0.238777D-01 -0.177078D-01 -0.713443D-02

 Test job not archived.
 1\1\GINC-PMLP-HPCCLSAP04\FOpt\RwB97XD TDA-FC\6-31G(d,p)\C24H17N1O2S1\W
 ILLIAM1\08-Aug-2024\0\\#p opt wB97XD/6-31G** iop(3/107=0158200000) IOP
 (3/108=0158200000) TDA=(singlets, nstates=4, root=2)\\Tuning input fil
 e generated by xtune with parameters: w01582\\0,1\C,3.2781563847,-0.97
 86335951,0.1465639158\C,2.77773442,1.2460314276,-0.0922157982\C,3.1938
 153066,-2.3623467734,0.2048610393\C,4.5022842861,-0.2503401031,0.24639
 25505\C,2.1012958483,2.448325155,-0.2370835734\C,4.187134673,1.1437211
 519,0.1071225591\C,4.4058969582,-3.0690920901,0.4081183544\H,2.2511525
 919,-2.8823487205,0.0829062304\C,5.6902372629,-0.970393339,0.428714522
 6\C,2.8856112757,3.6300186978,-0.2141251732\H,1.0240662848,2.487109421
 4,-0.3464833198\C,4.9403543302,2.3253154247,0.1456421088\C,5.614031450
 2,-2.3781677575,0.5149800825\H,4.3903990825,-4.1504132871,0.4722708616
 \H,6.6467108218,-0.4646897182,0.4915264476\C,4.2665109204,3.5545146569
 ,-0.0266521023\H,2.405569616,4.5936027334,-0.3360170386\H,6.010724212,
 2.3012308486,0.313502996\C,0.892954151,-0.3697261294,-0.2119635785\C,0
 .2495391095,-1.1285679551,0.7722732701\C,-1.0949418742,-1.4393354006,0
 .622798684\C,-1.7802598979,-0.9807060151,-0.5014894619\C,-1.1421252218
 ,-0.2318278522,-1.4894847769\C,0.2042393142,0.073453857,-1.3473452334\
 N,2.2608911464,-0.0488248986,-0.0601518668\S,-3.5262385359,-1.34723073
 47,-0.6714876159\O,-3.8009800745,-2.5343434457,0.1367047986\H,6.530892
 6983,-2.9408249806,0.6615330969\H,4.8454799914,4.4727157086,-0.0040496
 466\H,-1.6124405521,-2.0403178999,1.3619090694\H,-1.6927818216,0.08052
 04184,-2.3695778626\H,0.7339466763,0.6327275665,-2.109895096\H,0.80527
 84326,-1.456712759,1.643255843\O,-3.845922471,-1.2904207618,-2.0970329
 118\C,-4.3164457486,0.0493970501,0.1216618447\C,-4.5760133464,-0.00491
 02862,1.4893235737\C,-4.6401317812,1.1691612019,-0.6412653175\C,-5.165
 7761619,1.0948552509,2.1055367006\H,-4.3369665902,-0.9023319971,2.0490
 363425\C,-5.229808127,2.2624083695,-0.0132147181\H,-4.4502329824,1.168
 0355685,-1.708852153\C,-5.4874609416,2.2261652263,1.3565918577\H,-5.37
 98740594,1.0660589619,3.1685087144\H,-5.4939275957,3.1394535775,-0.594
 3098429\H,-5.9479244615,3.0807092253,1.8414396232\\Version=ES64L-G16Re
 vC.01\State=1-A\HF=-1527.8240732\RMSD=9.378e-09\RMSF=4.160e-06\Dipole=
 -0.0134377,1.5050188,0.8781353\PG=C01 [X(C24H17N1O2S1)]\\@


 BRING ME INTO THE COMPANY OF THOSE WHO SEEK TRUTH,
 AND DELIVER ME FROM THOSE WHO HAVE FOUND IT.
 Job cpu time:       1 days  8 hours 26 minutes 47.9 seconds.
 Elapsed time:       0 days  3 hours 12 minutes 26.0 seconds.
 File lengths (MBytes):  RWF=   1289 Int=      0 D2E=      0 Chk=     61 Scr=      1
 Normal termination of Gaussian 16 at Thu Aug  8 16:09:20 2024.
