 Entering Gaussian System, Link 0=g16
 Initial command:
 /apps/gaussian/g16/l1.exe "/local/Gau-1580504.inp" -scrdir="/local/"
 Entering Link 1 = /apps/gaussian/g16/l1.exe PID=   1580505.
  
 Copyright (c) 1988-2019, Gaussian, Inc.  All Rights Reserved.
  
 This is part of the Gaussian(R) 16 program.  It is based on
 the Gaussian(R) 09 system (copyright 2009, Gaussian, Inc.),
 the Gaussian(R) 03 system (copyright 2003, Gaussian, Inc.),
 the Gaussian(R) 98 system (copyright 1998, Gaussian, Inc.),
 the Gaussian(R) 94 system (copyright 1995, Gaussian, Inc.),
 the Gaussian 92(TM) system (copyright 1992, Gaussian, Inc.),
 the Gaussian 90(TM) system (copyright 1990, Gaussian, Inc.),
 the Gaussian 88(TM) system (copyright 1988, Gaussian, Inc.),
 the Gaussian 86(TM) system (copyright 1986, Carnegie Mellon
 University), and the Gaussian 82(TM) system (copyright 1983,
 Carnegie Mellon University). Gaussian is a federally registered
 trademark of Gaussian, Inc.
  
 This software contains proprietary and confidential information,
 including trade secrets, belonging to Gaussian, Inc.
  
 This software is provided under written license and may be
 used, copied, transmitted, or stored only in accord with that
 written license.
  
 The following legend is applicable only to US Government
 contracts under FAR:
  
                    RESTRICTED RIGHTS LEGEND
  
 Use, reproduction and disclosure by the US Government is
 subject to restrictions as set forth in subparagraphs (a)
 and (c) of the Commercial Computer Software - Restricted
 Rights clause in FAR 52.227-19.
  
 Gaussian, Inc.
 340 Quinnipiac St., Bldg. 40, Wallingford CT 06492
  
  
 ---------------------------------------------------------------
 Warning -- This program may not be used in any manner that
 competes with the business of Gaussian, Inc. or will provide
 assistance to any competitor of Gaussian, Inc.  The licensee
 of this program is prohibited from giving any competitor of
 Gaussian, Inc. access to this program.  By using this program,
 the user acknowledges that Gaussian, Inc. is engaged in the
 business of creating and licensing software in the field of
 computational chemistry and represents and warrants to the
 licensee that it is not a competitor of Gaussian, Inc. and that
 it will not use this program in any manner prohibited above.
 ---------------------------------------------------------------
  

 Cite this work as:
 Gaussian 16, Revision C.01,
 M. J. Frisch, G. W. Trucks, H. B. Schlegel, G. E. Scuseria, 
 M. A. Robb, J. R. Cheeseman, G. Scalmani, V. Barone, 
 G. A. Petersson, H. Nakatsuji, X. Li, M. Caricato, A. V. Marenich, 
 J. Bloino, B. G. Janesko, R. Gomperts, B. Mennucci, H. P. Hratchian, 
 J. V. Ortiz, A. F. Izmaylov, J. L. Sonnenberg, D. Williams-Young, 
 F. Ding, F. Lipparini, F. Egidi, J. Goings, B. Peng, A. Petrone, 
 T. Henderson, D. Ranasinghe, V. G. Zakrzewski, J. Gao, N. Rega, 
 G. Zheng, W. Liang, M. Hada, M. Ehara, K. Toyota, R. Fukuda, 
 J. Hasegawa, M. Ishida, T. Nakajima, Y. Honda, O. Kitao, H. Nakai, 
 T. Vreven, K. Throssell, J. A. Montgomery, Jr., J. E. Peralta, 
 F. Ogliaro, M. J. Bearpark, J. J. Heyd, E. N. Brothers, K. N. Kudin, 
 V. N. Staroverov, T. A. Keith, R. Kobayashi, J. Normand, 
 K. Raghavachari, A. P. Rendell, J. C. Burant, S. S. Iyengar, 
 J. Tomasi, M. Cossi, J. M. Millam, M. Klene, C. Adamo, R. Cammi, 
 J. W. Ochterski, R. L. Martin, K. Morokuma, O. Farkas, 
 J. B. Foresman, and D. J. Fox, Gaussian, Inc., Wallingford CT, 2019.
 
 ******************************************
 Gaussian 16:  ES64L-G16RevC.01  3-Jul-2019
                26-Aug-2024 
 ******************************************
 %chk=YZ-IX-171.chk
 %nprocshared=16
 Will use up to   16 processors via shared memory.
 %mem=16GB
 ----------------------------------------------------------------------
 #p opt=Restart wb97xd/6-31G** iop(3/107=0103900000,3/108=0103900000) T
 DA=(singlets, nstates=4, root=2)
 ----------------------------------------------------------------------
 1/18=20,19=15,26=3,35=1/3(2);
 2/9=110/2;
 99//99;
 2/9=110/2;
 3/5=1,6=6,7=101,11=9,25=1,30=1,71=1,74=-58,107=103900000,108=103900000/1,2,3,8;
 4/5=5,16=3,69=1/1;
 5/5=2,38=5/2;
 8/6=1,10=2,107=2,108=4/1;
 9/8=2,15=2,41=4,42=1,48=1,49=4/14;
 10/5=4,28=2/2;
 7/12=6,13=5,14=2/1,2,3,16;
 1/18=20,19=15,26=3/3(-8);
 2/9=110/2;
 6/7=2,8=2,9=2,10=2/1;
 99/9=10/99;
 Leave Link    1 at Mon Aug 26 20:36:18 2024, MaxMem=  2147483648 cpu:               1.0 elap:               0.1
 (Enter /apps/gaussian/g16/l103.exe)

 GradGradGradGradGradGradGradGradGradGradGradGradGradGradGradGradGradGrad
 Berny optimization.
 Restoring state from the checkpoint file "YZ-IX-171.chk".
 ONIOM results not found on unit 2.
 Title:  Tuning input file generated by xtune with parameters: w01039
 Route:  #p opt wb97xd/6-31G** iop(3/107=0103900000,3/108=0103900000) TDA=(single
 ts, nstates=4, root=2)
 FncErr=1.00D-07 GrdErr=1.00D-06 EigMax=2.50D+02 EigMin=1.00D-04
 Using GEDIIS/GDIIS optimizer.
 FormGI is forming the generalized inverse of G from B-inverse, IUseBI=4.
 Internal  Forces:  Max     0.000025614 RMS     0.000002798
 Search for a local minimum.
 Step number  27 out of a maximum of  930
 All quantities printed in internal units (Hartrees-Bohrs-Radians)
 RMS Force = .27975D-05 SwitMx=.10000D-02 MixMth= 2
 Mixed Optimization -- En-DIIS/RFO-DIIS
 Swapping is turned off.
 Update second derivatives using D2CorX and points   10   11   12   13   14
                                                     15   16   17   18   19
                                                     20   21   22   23   24
                                                     25   26   27
 DE= -6.22D-08 DEPred=-3.17D-08 R= 1.96D+00
 Trust test= 1.96D+00 RLast= 2.96D-03 DXMaxT set to 5.05D-01
 ITU=  0  0  0  0  0  0  0  1  1  1  1  1  1  1  1  1  0  1  0  0
 ITU=  1 -1  0 -1 -1  1  0
     Eigenvalues ---    0.00136   0.00218   0.00227   0.00230   0.00230
     Eigenvalues ---    0.00230   0.00230   0.00230   0.00230   0.00231
     Eigenvalues ---    0.00231   0.00232   0.00234   0.00235   0.00241
     Eigenvalues ---    0.00243   0.00246   0.00249   0.00254   0.00275
     Eigenvalues ---    0.00308   0.00355   0.00446   0.00490   0.00553
     Eigenvalues ---    0.00627   0.00740   0.00843   0.01170   0.01305
     Eigenvalues ---    0.01313   0.01352   0.01358   0.01394   0.01441
     Eigenvalues ---    0.01544   0.01565   0.01637   0.01690   0.01729
     Eigenvalues ---    0.01736   0.01778   0.01827   0.01840   0.01849
     Eigenvalues ---    0.01886   0.01899   0.01905   0.01922   0.01928
     Eigenvalues ---    0.01935   0.01950   0.01954   0.01964   0.01980
     Eigenvalues ---    0.01985   0.02011   0.02024   0.02028   0.02038
     Eigenvalues ---    0.02057   0.02058   0.02066   0.02082   0.02087
     Eigenvalues ---    0.02090   0.02091   0.02097   0.02103   0.02118
     Eigenvalues ---    0.02126   0.02130   0.02137   0.02140   0.02143
     Eigenvalues ---    0.02145   0.02151   0.02151   0.02157   0.02158
     Eigenvalues ---    0.02160   0.02164   0.02167   0.02170   0.02173
     Eigenvalues ---    0.02175   0.02178   0.02180   0.02185   0.02193
     Eigenvalues ---    0.02200   0.02210   0.02218   0.02221   0.02259
     Eigenvalues ---    0.02298   0.02341   0.02471   0.02648   0.02853
     Eigenvalues ---    0.03297   0.03410   0.04814   0.04934   0.04943
     Eigenvalues ---    0.04952   0.04963   0.04987   0.05051   0.05075
     Eigenvalues ---    0.05077   0.05091   0.05126   0.05180   0.05195
     Eigenvalues ---    0.05221   0.05241   0.05247   0.05255   0.05258
     Eigenvalues ---    0.05262   0.05262   0.05280   0.05285   0.05298
     Eigenvalues ---    0.05311   0.05324   0.05347   0.05353   0.05358
     Eigenvalues ---    0.05372   0.05372   0.05376   0.05378   0.05382
     Eigenvalues ---    0.05395   0.05412   0.05475   0.05476   0.05481
     Eigenvalues ---    0.05483   0.05497   0.05500   0.05501   0.05504
     Eigenvalues ---    0.05508   0.05513   0.05517   0.05520   0.05530
     Eigenvalues ---    0.05563   0.05575   0.05580   0.05583   0.05595
     Eigenvalues ---    0.05635   0.06187   0.10062   0.10401   0.11587
     Eigenvalues ---    0.14003   0.14673   0.14687   0.14696   0.14705
     Eigenvalues ---    0.14718   0.14980   0.15125   0.15196   0.15360
     Eigenvalues ---    0.15394   0.15478   0.15584   0.15708   0.15816
     Eigenvalues ---    0.15872   0.15875   0.15943   0.15979   0.15991
     Eigenvalues ---    0.15992   0.15993   0.15995   0.15996   0.15997
     Eigenvalues ---    0.15998   0.15998   0.15999   0.15999   0.15999
     Eigenvalues ---    0.15999   0.15999   0.16000   0.16000   0.16000
     Eigenvalues ---    0.16000   0.16000   0.16000   0.16000   0.16000
     Eigenvalues ---    0.16000   0.16000   0.16000   0.16000   0.16000
     Eigenvalues ---    0.16000   0.16000   0.16000   0.16000   0.16000
     Eigenvalues ---    0.16000   0.16000   0.16000   0.16000   0.16000
     Eigenvalues ---    0.16000   0.16000   0.16000   0.16000   0.16000
     Eigenvalues ---    0.16000   0.16000   0.16000   0.16000   0.16000
     Eigenvalues ---    0.16000   0.16000   0.16000   0.16000   0.16000
     Eigenvalues ---    0.16000   0.16000   0.16000   0.16002   0.16003
     Eigenvalues ---    0.16004   0.16006   0.16011   0.16014   0.16016
     Eigenvalues ---    0.16021   0.16027   0.16036   0.16057   0.16070
     Eigenvalues ---    0.16094   0.16147   0.16230   0.16327   0.16408
     Eigenvalues ---    0.16566   0.17003   0.19510   0.19851   0.21859
     Eigenvalues ---    0.22020   0.22041   0.22418   0.22438   0.22443
     Eigenvalues ---    0.22464   0.22479   0.22563   0.23287   0.23482
     Eigenvalues ---    0.23502   0.23508   0.23528   0.23576   0.23631
     Eigenvalues ---    0.23675   0.24080   0.24262   0.24476   0.24532
     Eigenvalues ---    0.24620   0.24630   0.24709   0.24790   0.24875
     Eigenvalues ---    0.24903   0.24954   0.24968   0.24980   0.24993
     Eigenvalues ---    0.25009   0.25065   0.25093   0.25120   0.25225
     Eigenvalues ---    0.25262   0.25590   0.25717   0.26318   0.27025
     Eigenvalues ---    0.27385   0.27870   0.28000   0.28009   0.28013
     Eigenvalues ---    0.28017   0.28021   0.28025   0.28032   0.28035
     Eigenvalues ---    0.28056   0.28106   0.28192   0.28344   0.28526
     Eigenvalues ---    0.28546   0.28553   0.28555   0.28557   0.28567
     Eigenvalues ---    0.28569   0.28603   0.28623   0.28739   0.29377
     Eigenvalues ---    0.30526   0.33168   0.33592   0.34193   0.34196
     Eigenvalues ---    0.34204   0.34206   0.34209   0.34210   0.34210
     Eigenvalues ---    0.34211   0.34216   0.34217   0.34223   0.34264
     Eigenvalues ---    0.34290   0.34291   0.34295   0.34298   0.34300
     Eigenvalues ---    0.34305   0.34309   0.34315   0.34321   0.34323
     Eigenvalues ---    0.34329   0.34330   0.34337   0.34341   0.34342
     Eigenvalues ---    0.34345   0.34350   0.34351   0.34353   0.34355
     Eigenvalues ---    0.34357   0.34360   0.34363   0.34364   0.34368
     Eigenvalues ---    0.34372   0.34381   0.34398   0.34402   0.34408
     Eigenvalues ---    0.34413   0.34414   0.34415   0.34419   0.34425
     Eigenvalues ---    0.34430   0.34432   0.34440   0.34443   0.34461
     Eigenvalues ---    0.34495   0.34642   0.35326   0.35340   0.35345
     Eigenvalues ---    0.35349   0.35359   0.35396   0.35461   0.35481
     Eigenvalues ---    0.35486   0.35498   0.35511   0.35516   0.35541
     Eigenvalues ---    0.35557   0.35581   0.35586   0.35594   0.35610
     Eigenvalues ---    0.35626   0.35648   0.35651   0.35688   0.35689
     Eigenvalues ---    0.35698   0.35733   0.35870   0.35961   0.36724
     Eigenvalues ---    0.36901   0.37350   0.38174   0.39388   0.39941
     Eigenvalues ---    0.40399   0.40588   0.41038   0.41624   0.42283
     Eigenvalues ---    0.42295   0.42367   0.42406   0.42425   0.42480
     Eigenvalues ---    0.42537   0.42605   0.42784   0.42806   0.43042
     Eigenvalues ---    0.43253   0.43319   0.43514   0.43665   0.43885
     Eigenvalues ---    0.44295   0.44413   0.44521   0.44839   0.45095
     Eigenvalues ---    0.45273   0.45381   0.45465   0.45617   0.45786
     Eigenvalues ---    0.45834   0.45865   0.46371   0.46424   0.46464
     Eigenvalues ---    0.46527   0.46573   0.46624   0.46684   0.46751
     Eigenvalues ---    0.46756   0.46778   0.46810   0.46861   0.46884
     Eigenvalues ---    0.46923   0.47047   0.47114   0.47525   0.48350
     Eigenvalues ---    0.49138   0.67243   0.88515   0.89794   0.95735
 En-DIIS/RFO-DIIS/Sim-DIIS IScMMF=       -3 using points:    27   26   25   24   23   22   21   20   19   18
 RFO step:  Lambda=-4.98126733D-08.
 NNeg= 0 NGDIIS=10 SimSw=  2.50D-01 Rises=F DC= -6.22D-08 SmlDif=  1.00D-05
 NRisDI= 0 DoIntr=F SqrtH=F CThrHd= 10.0 CDAdj=  3.0
 RMS Error=  0.1295418442D-03 NUsed=10 OKEnD=F EnDIS=F
 InvSVX:  RCond= 3.83D-08 Info=           0 Equed=N FErr=  4.56D-13 BErr=  5.35D-17
 DIIS inversion failure, remove point  10.
 InvSVX:  RCond= 4.28D-08 Info=           0 Equed=N FErr=  3.26D-13 BErr=  7.71D-17
 DIIS inversion failure, remove point   9.
 InvSVX:  RCond= 5.18D-08 Info=           0 Equed=N FErr=  2.58D-13 BErr=  1.02D-16
 DIIS inversion failure, remove point   8.
 InvSVX:  RCond= 5.97D-08 Info=           0 Equed=N FErr=  1.47D-13 BErr=  1.02D-16
 DIIS inversion failure, remove point   7.
 InvSVX:  RCond= 6.91D-08 Info=           0 Equed=N FErr=  2.31D-13 BErr=  1.02D-16
 DIIS inversion failure, remove point   6.
 InvSVX:  RCond= 9.36D-08 Info=           0 Equed=N FErr=  1.77D-13 BErr=  6.26D-17
 DIIS inversion failure, remove point   5.
 InvSVX:  RCond= 1.73D-07 Info=           0 Equed=N FErr=  7.38D-14 BErr=  5.32D-17
 RFO-DIIS uses    4 points instead of   10
 DidBck=F Rises=F RFO-DIIS coefs:    1.56730   -0.46448    0.17775   -0.28057    0.00000
                  RFO-DIIS coefs:    0.00000    0.00000    0.00000    0.00000    0.00000
 Iteration  1 RMS(Cart)=  0.00148195 RMS(Int)=  0.00000012
 Iteration  2 RMS(Cart)=  0.00000085 RMS(Int)=  0.00000006
 ITry= 1 IFail=0 DXMaxC= 5.48D-03 DCOld= 1.00D+10 DXMaxT= 5.05D-01 DXLimC= 3.00D+00 Rises=F
 Variable       Old X    -DE/DX   Delta X   Delta X   Delta X     New X
                                 (Linear)    (Quad)   (Total)
    R1        2.63010   0.00000  -0.00001   0.00001  -0.00001   2.63009
    R2        2.67480   0.00000  -0.00002   0.00001  -0.00001   2.67479
    R3        2.62246  -0.00001   0.00004  -0.00002   0.00002   2.62247
    R4        2.63483  -0.00000   0.00001  -0.00001  -0.00000   2.63483
    R5        2.67821  -0.00000   0.00001  -0.00001   0.00000   2.67821
    R6        2.61380   0.00001  -0.00002   0.00001  -0.00001   2.61379
    R7        2.63877   0.00000   0.00001   0.00000   0.00001   2.63878
    R8        2.04536   0.00000   0.00000  -0.00000  -0.00000   2.04535
    R9        2.75185   0.00000  -0.00001   0.00001  -0.00000   2.75185
   R10        2.61977  -0.00001   0.00002  -0.00002  -0.00000   2.61977
   R11        2.63515   0.00001  -0.00001   0.00001   0.00000   2.63515
   R12        2.04663  -0.00000   0.00000  -0.00000   0.00000   2.04663
   R13        2.61903  -0.00001   0.00001  -0.00002  -0.00001   2.61902
   R14        2.65365   0.00000  -0.00000  -0.00000  -0.00000   2.65365
   R15        2.04529  -0.00000   0.00000  -0.00001  -0.00000   2.04528
   R16        2.66467   0.00001  -0.00002   0.00002   0.00000   2.66468
   R17        2.05054   0.00000   0.00000  -0.00000   0.00000   2.05054
   R18        2.65686  -0.00001   0.00001  -0.00002  -0.00001   2.65685
   R19        2.04552   0.00000   0.00000  -0.00000   0.00000   2.04552
   R20        2.66498   0.00001  -0.00002   0.00002   0.00001   2.66499
   R21        2.05050  -0.00000   0.00000  -0.00000   0.00000   2.05050
   R22        2.90594   0.00000   0.00000  -0.00000   0.00000   2.90594
   R23        2.90621  -0.00000   0.00000  -0.00001  -0.00001   2.90620
   R24        2.71523   0.00001  -0.00001   0.00001   0.00000   2.71524
   R25        2.65906   0.00000  -0.00003  -0.00000  -0.00003   2.65903
   R26        2.69688   0.00001  -0.00003   0.00002  -0.00000   2.69688
   R27        2.58733  -0.00000   0.00001  -0.00000   0.00000   2.58734
   R28        2.71617   0.00001  -0.00001   0.00000  -0.00001   2.71617
   R29        2.67424   0.00001  -0.00002   0.00002   0.00000   2.67424
   R30        2.04832  -0.00000   0.00000  -0.00000  -0.00000   2.04832
   R31        2.75410   0.00001   0.00001   0.00001   0.00002   2.75413
   R32        3.30259  -0.00001   0.00005  -0.00003   0.00002   3.30260
   R33        2.60274  -0.00000   0.00001  -0.00000   0.00001   2.60275
   R34        2.69048   0.00001  -0.00001   0.00002   0.00001   2.69049
   R35        2.05007  -0.00000   0.00000  -0.00000   0.00000   2.05007
   R36        2.63446   0.00000  -0.00000   0.00001   0.00000   2.63446
   R37        2.66567   0.00000  -0.00001   0.00000  -0.00000   2.66567
   R38        2.63036  -0.00001   0.00001  -0.00002  -0.00001   2.63035
   R39        2.62840  -0.00000   0.00000  -0.00000   0.00000   2.62840
   R40        2.67149   0.00000  -0.00000   0.00000  -0.00000   2.67149
   R41        2.62784  -0.00000   0.00001  -0.00001   0.00000   2.62785
   R42        2.62121  -0.00000   0.00000  -0.00000   0.00000   2.62122
   R43        2.04615  -0.00000   0.00000  -0.00000  -0.00000   2.04615
   R44        2.73857   0.00000  -0.00000   0.00001   0.00000   2.73858
   R45        2.64584  -0.00000   0.00000  -0.00001  -0.00001   2.64584
   R46        2.63051   0.00000  -0.00000   0.00000   0.00000   2.63051
   R47        2.04808  -0.00000   0.00000  -0.00000  -0.00000   2.04808
   R48        2.63599  -0.00001   0.00000  -0.00001  -0.00001   2.63598
   R49        2.67488   0.00000   0.00000   0.00000   0.00000   2.67488
   R50        2.05135  -0.00000   0.00000  -0.00000  -0.00000   2.05135
   R51        2.63478   0.00001  -0.00000   0.00001   0.00001   2.63479
   R52        2.04785  -0.00000   0.00000  -0.00000  -0.00000   2.04785
   R53        2.66402  -0.00000   0.00001  -0.00000   0.00000   2.66402
   R54        2.04699  -0.00000   0.00000  -0.00000  -0.00000   2.04698
   R55        2.64452   0.00001  -0.00001   0.00001   0.00001   2.64453
   R56        2.05216  -0.00000   0.00000  -0.00000   0.00000   2.05216
   R57        2.90822   0.00000  -0.00000   0.00000  -0.00000   2.90821
   R58        2.91038   0.00000  -0.00000   0.00000  -0.00000   2.91038
   R59        2.92188  -0.00000  -0.00001  -0.00000  -0.00001   2.92188
   R60        2.92230   0.00000   0.00000   0.00000   0.00001   2.92231
   R61        2.90873   0.00000   0.00000   0.00000   0.00000   2.90873
   R62        2.92073   0.00000  -0.00000   0.00001   0.00001   2.92074
   R63        2.92315  -0.00000   0.00000  -0.00001  -0.00001   2.92314
   R64        2.90916  -0.00000   0.00000  -0.00000  -0.00000   2.90916
   R65        2.92096  -0.00000   0.00000  -0.00000   0.00000   2.92096
   R66        2.90952  -0.00000   0.00000  -0.00000   0.00000   2.90952
   R67        2.92055   0.00000  -0.00000   0.00000  -0.00000   2.92054
   R68        2.92109  -0.00000  -0.00000   0.00000  -0.00000   2.92108
   R69        2.90925   0.00000   0.00000   0.00000   0.00000   2.90925
   R70        2.92123  -0.00000  -0.00000  -0.00000  -0.00000   2.92123
   R71        3.40120   0.00000  -0.00000   0.00000   0.00000   3.40120
   R72        2.77948  -0.00000   0.00000  -0.00000   0.00000   2.77948
   R73        2.78589  -0.00000   0.00001  -0.00000   0.00000   2.78589
   R74        2.63782   0.00000  -0.00000   0.00000   0.00000   2.63782
   R75        2.63119  -0.00000  -0.00000  -0.00000  -0.00000   2.63119
   R76        2.63003  -0.00000   0.00000  -0.00000  -0.00000   2.63003
   R77        2.04882   0.00000  -0.00000  -0.00000  -0.00000   2.04882
   R78        2.63518  -0.00000   0.00000  -0.00000  -0.00000   2.63518
   R79        2.04766   0.00000  -0.00000   0.00000  -0.00000   2.04766
   R80        2.63993   0.00000  -0.00000   0.00000   0.00000   2.63993
   R81        2.05042   0.00000  -0.00000   0.00000  -0.00000   2.05042
   R82        2.63346   0.00000   0.00000   0.00000   0.00000   2.63347
   R83        2.04822   0.00000   0.00000   0.00000   0.00000   2.04823
   R84        2.04987  -0.00000   0.00000  -0.00000  -0.00000   2.04987
   R85        2.06645  -0.00000   0.00000  -0.00000  -0.00000   2.06645
   R86        2.07075  -0.00000  -0.00000  -0.00000  -0.00000   2.07075
   R87        2.06769  -0.00000   0.00000  -0.00000  -0.00000   2.06769
   R88        2.06829  -0.00000   0.00000  -0.00000  -0.00000   2.06829
   R89        2.06833   0.00000  -0.00000   0.00000  -0.00000   2.06833
   R90        2.06835   0.00000  -0.00000   0.00000  -0.00000   2.06835
   R91        2.06674  -0.00000   0.00000  -0.00000  -0.00000   2.06673
   R92        2.07054   0.00000  -0.00000   0.00000  -0.00000   2.07054
   R93        2.06619   0.00000   0.00000   0.00000   0.00000   2.06620
   R94        2.06640  -0.00000   0.00000  -0.00000  -0.00000   2.06640
   R95        2.07060  -0.00000  -0.00000  -0.00000  -0.00000   2.07060
   R96        2.06781  -0.00000   0.00000  -0.00000  -0.00000   2.06781
   R97        2.06824  -0.00000   0.00000  -0.00000  -0.00000   2.06824
   R98        2.06848  -0.00000   0.00000  -0.00000  -0.00000   2.06848
   R99        2.06830   0.00000  -0.00000   0.00000  -0.00000   2.06829
   R100       2.06610  -0.00000   0.00000  -0.00000  -0.00000   2.06610
   R101       2.06720  -0.00000   0.00000  -0.00000   0.00000   2.06720
   R102       2.07068   0.00000  -0.00000   0.00000  -0.00000   2.07068
   R103       2.06608  -0.00000  -0.00000   0.00000  -0.00000   2.06608
   R104       2.06873  -0.00000   0.00000  -0.00000  -0.00000   2.06873
   R105       2.06605   0.00000   0.00000   0.00000   0.00000   2.06606
   R106       2.06904   0.00000   0.00000  -0.00000   0.00000   2.06904
   R107       2.06644   0.00000   0.00000   0.00000   0.00000   2.06644
   R108       2.06678   0.00000  -0.00000   0.00000   0.00000   2.06678
   R109       2.06744   0.00000  -0.00000   0.00000   0.00000   2.06744
   R110       2.06829  -0.00000   0.00000  -0.00000   0.00000   2.06829
   R111       2.06692  -0.00000   0.00000  -0.00000  -0.00000   2.06692
   R112       2.06899  -0.00000   0.00000  -0.00000   0.00000   2.06899
   R113       2.06642   0.00000  -0.00000  -0.00000  -0.00000   2.06642
   R114       2.06622  -0.00000   0.00000  -0.00000  -0.00000   2.06622
   R115       2.06650   0.00000  -0.00000   0.00000   0.00000   2.06650
   R116       2.06911  -0.00000   0.00000  -0.00000  -0.00000   2.06911
   R117       2.06688  -0.00000   0.00000  -0.00000  -0.00000   2.06688
   R118       2.06758   0.00000  -0.00000   0.00000   0.00000   2.06758
   R119       2.06765  -0.00000   0.00000  -0.00000  -0.00000   2.06765
   R120       2.06701  -0.00000   0.00000  -0.00000   0.00000   2.06701
   R121       2.61742  -0.00001  -0.00000  -0.00001  -0.00002   2.61740
   R122       2.60444   0.00002  -0.00000   0.00003   0.00003   2.60447
   R123       2.62984   0.00000  -0.00001   0.00001   0.00000   2.62984
   R124       2.67561   0.00000  -0.00000   0.00001   0.00000   2.67562
   R125       2.63753  -0.00001   0.00000  -0.00002  -0.00001   2.63752
   R126       2.68073  -0.00001   0.00001  -0.00002  -0.00001   2.68072
   R127       2.63970  -0.00000   0.00001  -0.00001  -0.00000   2.63970
   R128       2.04434   0.00000  -0.00000   0.00000  -0.00000   2.04434
   R129       2.75397  -0.00000   0.00000  -0.00001  -0.00000   2.75397
   R130       2.61594   0.00001  -0.00000   0.00001   0.00001   2.61595
   R131       2.63407   0.00000  -0.00000   0.00001   0.00000   2.63407
   R132       2.04605   0.00000  -0.00000   0.00000  -0.00000   2.04605
   R133       2.61449   0.00001  -0.00001   0.00002   0.00001   2.61450
   R134       2.65131   0.00001  -0.00001   0.00001   0.00000   2.65132
   R135       2.04480   0.00000  -0.00000   0.00000   0.00000   2.04480
   R136       2.66872  -0.00001   0.00001  -0.00002  -0.00001   2.66871
   R137       2.05004   0.00000  -0.00000   0.00000   0.00000   2.05005
   R138       2.65628  -0.00000  -0.00000  -0.00000  -0.00000   2.65627
   R139       2.04476   0.00000  -0.00000   0.00000   0.00000   2.04476
   R140       2.66979  -0.00001   0.00001  -0.00002  -0.00001   2.66978
   R141       2.04987   0.00000  -0.00000   0.00000   0.00000   2.04987
   R142       2.90459  -0.00000  -0.00000   0.00000  -0.00000   2.90459
   R143       2.90436   0.00000   0.00000   0.00000   0.00000   2.90436
   R144       2.90850   0.00000  -0.00000   0.00000   0.00000   2.90850
   R145       2.92245  -0.00000   0.00001  -0.00000   0.00001   2.92246
   R146       2.92211  -0.00000  -0.00001  -0.00000  -0.00001   2.92210
   R147       2.90900  -0.00000   0.00000  -0.00000  -0.00000   2.90900
   R148       2.92129   0.00000  -0.00000   0.00001   0.00001   2.92130
   R149       2.92359  -0.00000   0.00000  -0.00001  -0.00001   2.92358
   R150       2.06742   0.00000  -0.00000   0.00001   0.00001   2.06743
   R151       2.06771  -0.00000   0.00000  -0.00000   0.00000   2.06771
   R152       2.06678  -0.00000   0.00000   0.00000   0.00000   2.06678
   R153       2.06688  -0.00000  -0.00000  -0.00000  -0.00000   2.06688
   R154       2.06646   0.00000  -0.00000   0.00000  -0.00000   2.06646
   R155       2.06880   0.00000  -0.00000   0.00000   0.00000   2.06880
   R156       2.06597   0.00000   0.00000   0.00000   0.00000   2.06597
   R157       2.06867   0.00000   0.00000   0.00000   0.00000   2.06868
   R158       2.06639  -0.00000  -0.00000  -0.00000  -0.00000   2.06639
   R159       2.06727   0.00000  -0.00000   0.00000  -0.00000   2.06727
   R160       2.06810   0.00000  -0.00000   0.00000   0.00000   2.06810
   R161       2.06667   0.00000   0.00000   0.00000   0.00000   2.06667
   R162       2.06609   0.00000  -0.00000   0.00000   0.00000   2.06609
   R163       2.06840  -0.00000   0.00000   0.00000   0.00000   2.06840
   R164       2.06575  -0.00000   0.00000  -0.00000  -0.00000   2.06575
   R165       2.06645   0.00000  -0.00000   0.00000   0.00000   2.06645
   R166       2.06663   0.00000  -0.00000   0.00000   0.00000   2.06663
   R167       2.06867   0.00000   0.00000   0.00000   0.00000   2.06867
    A1        2.11880   0.00000  -0.00000   0.00000   0.00000   2.11881
    A2        2.25044  -0.00000   0.00001  -0.00001  -0.00000   2.25044
    A3        1.91393   0.00000  -0.00001   0.00000  -0.00000   1.91393
    A4        2.11833   0.00000  -0.00001   0.00001  -0.00001   2.11832
    A5        2.24849  -0.00000   0.00001  -0.00001   0.00001   2.24850
    A6        1.91627   0.00000  -0.00000  -0.00000  -0.00000   1.91627
    A7        2.05414  -0.00000  -0.00000  -0.00001  -0.00001   2.05413
    A8        2.10790   0.00000   0.00002   0.00000   0.00002   2.10792
    A9        2.12075   0.00000  -0.00002   0.00000  -0.00002   2.12073
   A10        1.85382  -0.00000   0.00001  -0.00001   0.00000   1.85383
   A11        2.08697   0.00000   0.00000   0.00000   0.00000   2.08698
   A12        2.34231  -0.00000  -0.00001   0.00000  -0.00000   2.34231
   A13        2.05482   0.00000   0.00001  -0.00000   0.00001   2.05482
   A14        2.10716   0.00000  -0.00001   0.00000  -0.00001   2.10715
   A15        2.12060  -0.00000   0.00001  -0.00000   0.00000   2.12061
   A16        1.85174  -0.00000   0.00000  -0.00000   0.00000   1.85174
   A17        2.08627   0.00000   0.00000  -0.00000   0.00000   2.08627
   A18        2.34497   0.00000  -0.00001   0.00000  -0.00000   2.34496
   A19        2.13948   0.00000   0.00000   0.00000   0.00000   2.13948
   A20        2.05179  -0.00000  -0.00000  -0.00002  -0.00002   2.05177
   A21        2.09190   0.00000   0.00000   0.00002   0.00002   2.09192
   A22        2.10247   0.00000   0.00000  -0.00000   0.00000   2.10248
   A23        2.08393   0.00000  -0.00001   0.00001  -0.00000   2.08392
   A24        2.09678  -0.00000   0.00001  -0.00001   0.00000   2.09678
   A25        2.13867  -0.00000   0.00000  -0.00001  -0.00000   2.13867
   A26        2.05358   0.00000   0.00000   0.00001   0.00001   2.05360
   A27        2.09086  -0.00000  -0.00000  -0.00001  -0.00001   2.09085
   A28        2.10272  -0.00000   0.00001  -0.00001  -0.00000   2.10272
   A29        2.08428   0.00000  -0.00001   0.00000  -0.00001   2.08428
   A30        2.09610   0.00000   0.00000   0.00000   0.00001   2.09611
   A31        2.06427  -0.00000  -0.00001   0.00000  -0.00000   2.06427
   A32        2.14031   0.00001  -0.00000   0.00002   0.00002   2.14033
   A33        2.07853  -0.00001   0.00001  -0.00003  -0.00002   2.07851
   A34        2.06555   0.00000  -0.00000   0.00001   0.00000   2.06555
   A35        2.13725  -0.00000   0.00000  -0.00001  -0.00000   2.13725
   A36        2.08004   0.00000   0.00000   0.00000   0.00000   2.08004
   A37        2.06554   0.00000   0.00002   0.00002   0.00004   2.06558
   A38        2.06720   0.00002   0.00002   0.00001   0.00003   2.06722
   A39        2.14700  -0.00002   0.00006  -0.00003   0.00003   2.14704
   A40        2.12180  -0.00001   0.00000  -0.00002  -0.00002   2.12178
   A41        2.03696   0.00003   0.00000   0.00003   0.00003   2.03699
   A42        2.12246  -0.00002   0.00000  -0.00001  -0.00001   2.12245
   A43        2.10049   0.00001  -0.00001   0.00001   0.00000   2.10049
   A44        2.10925  -0.00000   0.00001  -0.00001   0.00000   2.10925
   A45        2.07319  -0.00000  -0.00000  -0.00000  -0.00000   2.07319
   A46        2.06681  -0.00001   0.00001  -0.00001   0.00000   2.06682
   A47        2.04593  -0.00001  -0.00002  -0.00001  -0.00002   2.04591
   A48        2.15650   0.00001  -0.00005   0.00001  -0.00003   2.15646
   A49        2.09699   0.00000  -0.00001   0.00001   0.00000   2.09699
   A50        2.11608   0.00001  -0.00002   0.00001  -0.00002   2.11606
   A51        2.06659  -0.00001   0.00003  -0.00002   0.00001   2.06660
   A52        2.11352   0.00000   0.00000  -0.00002  -0.00001   2.11350
   A53        2.09458  -0.00000  -0.00001   0.00001   0.00000   2.09458
   A54        2.07484  -0.00000   0.00000   0.00001   0.00001   2.07485
   A55        2.11445   0.00000   0.00000   0.00001   0.00001   2.11446
   A56        2.25837  -0.00000  -0.00000  -0.00001  -0.00002   2.25836
   A57        1.91036   0.00000   0.00000   0.00001   0.00001   1.91036
   A58        2.11509   0.00000   0.00000   0.00000   0.00001   2.11510
   A59        2.25805  -0.00000  -0.00001  -0.00000  -0.00001   2.25805
   A60        1.90978  -0.00000   0.00000  -0.00000  -0.00000   1.90978
   A61        2.05231  -0.00000   0.00000  -0.00001  -0.00001   2.05230
   A62        2.10921  -0.00000   0.00001  -0.00000   0.00000   2.10922
   A63        2.12120   0.00000  -0.00001   0.00001   0.00000   2.12120
   A64        1.86015  -0.00000   0.00000  -0.00001  -0.00000   1.86015
   A65        2.09212  -0.00000   0.00000  -0.00000  -0.00000   2.09212
   A66        2.33091   0.00000  -0.00000   0.00001   0.00001   2.33092
   A67        2.05744  -0.00000  -0.00000  -0.00000  -0.00001   2.05743
   A68        2.11001  -0.00000   0.00000  -0.00000  -0.00000   2.11001
   A69        2.11535   0.00000  -0.00000   0.00001   0.00001   2.11536
   A70        1.85800  -0.00000   0.00000  -0.00000  -0.00000   1.85800
   A71        2.08620   0.00000  -0.00000   0.00000  -0.00000   2.08620
   A72        2.33895   0.00000   0.00000   0.00000   0.00000   2.33895
   A73        2.14777  -0.00000  -0.00000  -0.00000  -0.00000   2.14777
   A74        2.05519   0.00000  -0.00000   0.00000   0.00000   2.05519
   A75        2.08016  -0.00000   0.00000  -0.00000   0.00000   2.08016
   A76        2.09891   0.00000  -0.00000   0.00000  -0.00000   2.09891
   A77        2.07388   0.00000  -0.00001   0.00001  -0.00000   2.07388
   A78        2.11040  -0.00000   0.00001  -0.00001   0.00000   2.11040
   A79        2.14139   0.00000  -0.00000   0.00000   0.00000   2.14139
   A80        2.05230   0.00000   0.00001   0.00000   0.00001   2.05231
   A81        2.08945  -0.00000  -0.00001  -0.00000  -0.00001   2.08944
   A82        2.10492  -0.00000  -0.00000  -0.00000  -0.00000   2.10492
   A83        2.07773  -0.00000  -0.00000   0.00000  -0.00000   2.07773
   A84        2.10053   0.00000   0.00000   0.00000   0.00000   2.10053
   A85        2.06079   0.00000   0.00000   0.00000   0.00000   2.06080
   A86        2.08091  -0.00000  -0.00000  -0.00000  -0.00001   2.08090
   A87        2.14147   0.00000   0.00000   0.00000   0.00000   2.14147
   A88        2.06131  -0.00000   0.00000  -0.00000   0.00000   2.06131
   A89        2.13725   0.00000  -0.00000   0.00001   0.00000   2.13726
   A90        2.08462   0.00000  -0.00000  -0.00000  -0.00001   2.08461
   A91        1.90845  -0.00000   0.00001  -0.00001   0.00000   1.90845
   A92        1.90691  -0.00000  -0.00000  -0.00002  -0.00002   1.90690
   A93        1.96198   0.00001  -0.00001   0.00003   0.00002   1.96200
   A94        1.91045   0.00000   0.00000  -0.00001  -0.00001   1.91044
   A95        1.88825   0.00000  -0.00001   0.00001  -0.00000   1.88825
   A96        1.88721  -0.00000   0.00000  -0.00000   0.00000   1.88721
   A97        1.91454  -0.00000   0.00002  -0.00004  -0.00003   1.91451
   A98        1.90193   0.00000  -0.00002   0.00004   0.00003   1.90196
   A99        1.96275  -0.00000   0.00001  -0.00002  -0.00001   1.96274
   A100       1.90983  -0.00000  -0.00001   0.00001   0.00001   1.90984
   A101       1.88552   0.00000   0.00000   0.00001   0.00001   1.88553
   A102       1.88862  -0.00000  -0.00000  -0.00000  -0.00001   1.88861
   A103       1.88839   0.00000  -0.00000   0.00000  -0.00000   1.88839
   A104       2.20194  -0.00000   0.00003  -0.00002   0.00001   2.20195
   A105       2.18969   0.00000  -0.00002   0.00002  -0.00000   2.18969
   A106       2.21077  -0.00000  -0.00001  -0.00001  -0.00003   2.21074
   A107       2.17241   0.00000  -0.00000   0.00002   0.00002   2.17243
   A108       1.88624   0.00000  -0.00001   0.00001  -0.00000   1.88624
   A109       1.90980   0.00000  -0.00002   0.00002   0.00000   1.90980
   A110       1.96248   0.00000   0.00000   0.00001   0.00001   1.96249
   A111       1.91298  -0.00000   0.00001  -0.00002  -0.00001   1.91297
   A112       1.88608  -0.00000   0.00001  -0.00001  -0.00001   1.88608
   A113       1.90841   0.00000  -0.00000  -0.00000  -0.00000   1.90841
   A114       1.88326   0.00000  -0.00000   0.00001   0.00000   1.88326
   A115       1.91226  -0.00000   0.00000  -0.00001  -0.00000   1.91226
   A116       1.95964   0.00000  -0.00001   0.00001   0.00001   1.95965
   A117       1.91092   0.00000  -0.00000   0.00000  -0.00000   1.91092
   A118       1.88472   0.00000   0.00000   0.00000   0.00000   1.88473
   A119       1.91027   0.00000   0.00000  -0.00000  -0.00000   1.91027
   A120       1.88531  -0.00000   0.00000  -0.00001  -0.00000   1.88531
   A121       1.85163   0.00002  -0.00006   0.00003  -0.00003   1.85160
   A122       1.93261  -0.00000   0.00002  -0.00001   0.00001   1.93262
   A123       1.86311  -0.00001   0.00002  -0.00000   0.00001   1.86313
   A124       1.85531  -0.00000   0.00001  -0.00001   0.00001   1.85532
   A125       1.86207  -0.00001   0.00001  -0.00001  -0.00001   1.86207
   A126       2.08529   0.00000  -0.00001   0.00001   0.00000   2.08529
   A127       2.07814  -0.00000  -0.00001  -0.00000  -0.00001   2.07813
   A128       2.08862   0.00000   0.00001   0.00001   0.00001   2.08863
   A129       2.11635  -0.00000   0.00000  -0.00000   0.00000   2.11635
   A130       2.08018   0.00000  -0.00000   0.00000   0.00000   2.08018
   A131       2.09069   0.00000   0.00000   0.00000   0.00001   2.09070
   A132       2.11225  -0.00000  -0.00000  -0.00001  -0.00001   2.11224
   A133       2.07904  -0.00000  -0.00000   0.00000  -0.00000   2.07904
   A134       2.08452  -0.00000   0.00000  -0.00001  -0.00000   2.08451
   A135       2.11957   0.00000  -0.00000   0.00000   0.00000   2.11957
   A136       2.09543  -0.00000   0.00000  -0.00000  -0.00000   2.09542
   A137       2.09134   0.00000  -0.00000  -0.00000  -0.00000   2.09134
   A138       2.09642   0.00000   0.00000   0.00000   0.00000   2.09642
   A139       2.09715   0.00000  -0.00000   0.00000   0.00000   2.09715
   A140       2.08729   0.00000   0.00000   0.00000   0.00000   2.08730
   A141       2.09868  -0.00000   0.00000  -0.00001  -0.00001   2.09868
   A142       2.09815  -0.00000   0.00000  -0.00000  -0.00000   2.09815
   A143       2.09151   0.00000  -0.00000   0.00000   0.00000   2.09151
   A144       2.09352   0.00000  -0.00000   0.00000  -0.00000   2.09352
   A145       1.94852   0.00000  -0.00001   0.00002   0.00000   1.94853
   A146       1.93119  -0.00000   0.00000  -0.00001  -0.00000   1.93119
   A147       1.93254  -0.00000   0.00000  -0.00000  -0.00000   1.93254
   A148       1.88050  -0.00000   0.00001  -0.00001  -0.00000   1.88050
   A149       1.87948  -0.00000  -0.00000   0.00000   0.00000   1.87948
   A150       1.88936   0.00000   0.00000  -0.00000   0.00000   1.88936
   A151       1.94993   0.00000   0.00000   0.00000   0.00001   1.94993
   A152       1.95104  -0.00000   0.00001  -0.00000   0.00000   1.95104
   A153       1.91516  -0.00000  -0.00000  -0.00000  -0.00001   1.91516
   A154       1.89083   0.00000   0.00000   0.00000   0.00000   1.89083
   A155       1.87783  -0.00000  -0.00000  -0.00000  -0.00001   1.87783
   A156       1.87610   0.00000  -0.00001   0.00001  -0.00000   1.87610
   A157       1.93136  -0.00000   0.00001  -0.00001  -0.00000   1.93136
   A158       1.93061   0.00000  -0.00001   0.00000  -0.00000   1.93061
   A159       1.95115  -0.00000   0.00001  -0.00001   0.00000   1.95115
   A160       1.88918   0.00000   0.00000   0.00001   0.00001   1.88919
   A161       1.88045   0.00000  -0.00001   0.00000  -0.00000   1.88044
   A162       1.87880   0.00000  -0.00001   0.00000  -0.00000   1.87880
   A163       1.95099  -0.00000   0.00000  -0.00000  -0.00000   1.95099
   A164       1.92929  -0.00000  -0.00000  -0.00000  -0.00000   1.92929
   A165       1.93264   0.00000   0.00000   0.00000   0.00000   1.93264
   A166       1.87893   0.00000   0.00000   0.00000   0.00000   1.87893
   A167       1.88059   0.00000  -0.00000   0.00000  -0.00000   1.88059
   A168       1.88912   0.00000   0.00000  -0.00000   0.00000   1.88912
   A169       1.94984  -0.00000  -0.00000  -0.00000  -0.00000   1.94984
   A170       1.95035   0.00000   0.00000   0.00000   0.00001   1.95035
   A171       1.91546  -0.00000   0.00000  -0.00000  -0.00000   1.91546
   A172       1.89122   0.00000  -0.00000   0.00001   0.00000   1.89122
   A173       1.87663   0.00000   0.00000  -0.00000   0.00000   1.87663
   A174       1.87742  -0.00000   0.00000  -0.00001  -0.00000   1.87742
   A175       1.95151   0.00000   0.00000   0.00000   0.00000   1.95151
   A176       1.93236   0.00000   0.00000   0.00000   0.00000   1.93236
   A177       1.92923  -0.00000  -0.00000  -0.00000  -0.00000   1.92922
   A178       1.87854  -0.00000  -0.00000   0.00000  -0.00000   1.87853
   A179       1.88000  -0.00000   0.00000  -0.00000  -0.00000   1.87999
   A180       1.88994   0.00000   0.00000  -0.00000  -0.00000   1.88994
   A181       1.95662  -0.00000  -0.00000  -0.00001  -0.00001   1.95661
   A182       1.92411   0.00000   0.00000   0.00001   0.00001   1.92412
   A183       1.93359  -0.00000   0.00001  -0.00001  -0.00000   1.93358
   A184       1.87682   0.00000  -0.00000   0.00001   0.00001   1.87683
   A185       1.88347   0.00000  -0.00000   0.00000  -0.00000   1.88347
   A186       1.88679   0.00000  -0.00001   0.00001   0.00000   1.88679
   A187       1.92493   0.00000  -0.00000  -0.00000  -0.00000   1.92493
   A188       1.95195   0.00000  -0.00000   0.00002   0.00001   1.95196
   A189       1.93442   0.00000  -0.00000   0.00001   0.00000   1.93443
   A190       1.87959  -0.00000   0.00000  -0.00001  -0.00001   1.87958
   A191       1.88893  -0.00000   0.00000  -0.00000  -0.00000   1.88893
   A192       1.88180  -0.00000   0.00000  -0.00001  -0.00000   1.88179
   A193       1.95329  -0.00000  -0.00000  -0.00001  -0.00001   1.95328
   A194       1.95179   0.00000   0.00000   0.00001   0.00001   1.95180
   A195       1.91242  -0.00000   0.00000  -0.00000  -0.00000   1.91242
   A196       1.89288  -0.00000   0.00000  -0.00000   0.00000   1.89288
   A197       1.87399   0.00000   0.00000   0.00001   0.00002   1.87401
   A198       1.87626  -0.00000  -0.00000  -0.00001  -0.00001   1.87625
   A199       1.92507   0.00000   0.00000  -0.00000   0.00000   1.92507
   A200       1.95386  -0.00000   0.00001  -0.00000   0.00000   1.95387
   A201       1.93498   0.00000   0.00000   0.00001   0.00001   1.93498
   A202       1.87690   0.00000  -0.00001   0.00000  -0.00000   1.87689
   A203       1.88982  -0.00000  -0.00000   0.00000  -0.00000   1.88982
   A204       1.88087  -0.00000  -0.00000  -0.00000  -0.00001   1.88086
   A205       1.95261   0.00000  -0.00001   0.00000  -0.00001   1.95261
   A206       1.92532  -0.00000   0.00001  -0.00001  -0.00000   1.92532
   A207       1.93459   0.00000  -0.00000   0.00000  -0.00000   1.93459
   A208       1.87857   0.00000   0.00001  -0.00000   0.00000   1.87858
   A209       1.88165   0.00000   0.00000   0.00001   0.00001   1.88165
   A210       1.88880   0.00000  -0.00000   0.00000   0.00000   1.88881
   A211       1.95226   0.00000  -0.00001   0.00001  -0.00000   1.95226
   A212       1.95236  -0.00000   0.00001  -0.00000   0.00001   1.95237
   A213       1.91313  -0.00000  -0.00000  -0.00000  -0.00000   1.91312
   A214       1.89165  -0.00000  -0.00000   0.00000   0.00000   1.89165
   A215       1.87663  -0.00000   0.00001  -0.00000   0.00001   1.87664
   A216       1.87465  -0.00000  -0.00000   0.00000  -0.00000   1.87464
   A217       2.20406   0.00001  -0.00001   0.00001   0.00000   2.20406
   A218       2.17692  -0.00001   0.00002  -0.00001   0.00001   2.17693
   A219       1.89668  -0.00000   0.00000  -0.00001  -0.00000   1.89668
   A220       2.25218   0.00000  -0.00000   0.00001   0.00000   2.25218
   A221       1.90993   0.00000   0.00000   0.00000   0.00001   1.90994
   A222       2.12101  -0.00000   0.00000  -0.00001  -0.00001   2.12100
   A223       2.24881   0.00000   0.00001   0.00000   0.00001   2.24883
   A224       1.91293   0.00000  -0.00001  -0.00000  -0.00001   1.91293
   A225       2.12139  -0.00000  -0.00000  -0.00000  -0.00001   2.12138
   A226       2.05259   0.00000  -0.00000   0.00001   0.00000   2.05260
   A227       2.11025  -0.00000   0.00001  -0.00000   0.00000   2.11026
   A228       2.12001  -0.00000  -0.00001  -0.00000  -0.00001   2.12000
   A229       1.85368   0.00000  -0.00000  -0.00000  -0.00000   1.85367
   A230       2.08622   0.00000   0.00000   0.00000   0.00000   2.08623
   A231       2.34321  -0.00000   0.00000  -0.00000  -0.00000   2.34321
   A232       2.05214   0.00000   0.00000   0.00000   0.00000   2.05214
   A233       2.10854   0.00000   0.00000   0.00001   0.00001   2.10855
   A234       2.12193  -0.00000  -0.00000  -0.00001  -0.00002   2.12191
   A235       1.85111   0.00000   0.00000   0.00001   0.00001   1.85112
   A236       2.08501   0.00000   0.00000   0.00000   0.00000   2.08502
   A237       2.34690  -0.00000  -0.00000  -0.00001  -0.00001   2.34689
   A238       2.13901   0.00000   0.00000   0.00000   0.00000   2.13902
   A239       2.05233  -0.00000  -0.00001   0.00000  -0.00000   2.05232
   A240       2.09184  -0.00000   0.00000  -0.00000   0.00000   2.09184
   A241       2.10166   0.00000  -0.00000   0.00000   0.00000   2.10166
   A242       2.08510  -0.00000   0.00001  -0.00001  -0.00001   2.08509
   A243       2.09642   0.00000  -0.00000   0.00001   0.00001   2.09643
   A244       2.13869   0.00000   0.00000   0.00000   0.00001   2.13870
   A245       2.05310  -0.00000   0.00000  -0.00000  -0.00000   2.05309
   A246       2.09134  -0.00000  -0.00000   0.00000  -0.00000   2.09134
   A247       2.10167   0.00000  -0.00000   0.00000   0.00000   2.10167
   A248       2.08567  -0.00000   0.00001  -0.00002  -0.00001   2.08566
   A249       2.09580   0.00000  -0.00001   0.00001   0.00001   2.09581
   A250       2.06556   0.00000  -0.00000  -0.00000  -0.00000   2.06555
   A251       2.14011   0.00000  -0.00000   0.00000   0.00000   2.14011
   A252       2.07745  -0.00000   0.00001  -0.00000   0.00000   2.07745
   A253       2.06746  -0.00000  -0.00000  -0.00001  -0.00001   2.06745
   A254       2.13716  -0.00000   0.00000  -0.00000   0.00000   2.13717
   A255       2.07830   0.00000  -0.00000   0.00001   0.00001   2.07831
   A256       1.96142   0.00000  -0.00001   0.00001   0.00001   1.96142
   A257       1.90633   0.00000  -0.00000   0.00001   0.00001   1.90634
   A258       1.90718  -0.00000   0.00001  -0.00002  -0.00001   1.90717
   A259       1.88824  -0.00000   0.00000  -0.00001  -0.00001   1.88823
   A260       1.88879   0.00000  -0.00001   0.00001   0.00000   1.88879
   A261       1.91137  -0.00000   0.00001  -0.00001   0.00000   1.91137
   A262       1.96298  -0.00000   0.00000  -0.00000  -0.00000   1.96298
   A263       1.91275  -0.00000  -0.00000  -0.00002  -0.00002   1.91273
   A264       1.90102   0.00000   0.00000   0.00003   0.00003   1.90105
   A265       1.88636   0.00000   0.00000   0.00000   0.00001   1.88637
   A266       1.88937  -0.00000  -0.00001  -0.00001  -0.00001   1.88936
   A267       1.91079  -0.00000  -0.00000   0.00000  -0.00000   1.91079
   A268       1.95196   0.00000  -0.00001   0.00002   0.00001   1.95197
   A269       1.95253  -0.00000   0.00001  -0.00001  -0.00000   1.95253
   A270       1.91264  -0.00000  -0.00000  -0.00000  -0.00000   1.91264
   A271       1.89239  -0.00000   0.00000  -0.00000  -0.00000   1.89239
   A272       1.87681  -0.00000   0.00001  -0.00002  -0.00001   1.87681
   A273       1.87434   0.00000  -0.00001   0.00002   0.00001   1.87435
   A274       1.93513  -0.00000  -0.00001   0.00000  -0.00000   1.93513
   A275       1.95331   0.00000  -0.00000   0.00000  -0.00000   1.95331
   A276       1.92421  -0.00000   0.00000  -0.00001  -0.00000   1.92420
   A277       1.88190   0.00000   0.00001   0.00000   0.00001   1.88191
   A278       1.88867   0.00000  -0.00000   0.00001   0.00000   1.88867
   A279       1.87832  -0.00000   0.00000  -0.00001  -0.00000   1.87831
   A280       1.93525  -0.00000  -0.00000  -0.00000  -0.00001   1.93524
   A281       1.92374   0.00000  -0.00001   0.00002   0.00002   1.92375
   A282       1.95458  -0.00000   0.00001  -0.00001  -0.00000   1.95458
   A283       1.89026  -0.00000  -0.00000  -0.00000  -0.00000   1.89026
   A284       1.88116  -0.00000   0.00000  -0.00001  -0.00001   1.88115
   A285       1.87652   0.00000  -0.00000   0.00001   0.00001   1.87652
   A286       1.95364  -0.00000  -0.00000  -0.00000  -0.00001   1.95364
   A287       1.95202   0.00000   0.00000   0.00000   0.00001   1.95203
   A288       1.91156  -0.00000  -0.00000   0.00000  -0.00000   1.91156
   A289       1.89354  -0.00000   0.00000  -0.00000  -0.00000   1.89354
   A290       1.87385   0.00000   0.00000   0.00001   0.00001   1.87386
   A291       1.87598  -0.00000  -0.00000  -0.00001  -0.00001   1.87597
   A292       1.95761  -0.00000  -0.00000  -0.00002  -0.00002   1.95759
   A293       1.92235   0.00000   0.00000   0.00001   0.00001   1.92236
   A294       1.93380  -0.00000   0.00000  -0.00001  -0.00001   1.93379
   A295       1.87663   0.00000   0.00000   0.00001   0.00001   1.87664
   A296       1.88370   0.00000  -0.00000   0.00001   0.00001   1.88371
   A297       1.88733   0.00000  -0.00000   0.00000  -0.00000   1.88732
   A298       1.95305   0.00000   0.00001   0.00001   0.00002   1.95306
   A299       1.93503   0.00000  -0.00000   0.00001   0.00000   1.93504
   A300       1.92301   0.00000  -0.00001   0.00001  -0.00000   1.92301
   A301       1.88250  -0.00000   0.00001  -0.00001  -0.00000   1.88250
   A302       1.87922  -0.00000  -0.00000  -0.00001  -0.00001   1.87921
   A303       1.88880  -0.00000   0.00000  -0.00000  -0.00000   1.88879
    D1        0.02151  -0.00000   0.00004  -0.00006  -0.00002   0.02148
    D2       -3.09024  -0.00000   0.00014  -0.00011   0.00003  -3.09020
    D3       -3.12424  -0.00000  -0.00001  -0.00003  -0.00004  -3.12428
    D4        0.04720  -0.00000   0.00009  -0.00008   0.00001   0.04721
    D5        3.10961   0.00000  -0.00005   0.00003  -0.00002   3.10959
    D6       -0.02074   0.00000  -0.00004   0.00008   0.00004  -0.02070
    D7       -0.02855   0.00000  -0.00001   0.00001  -0.00000  -0.02855
    D8        3.12428   0.00000   0.00001   0.00005   0.00006   3.12434
    D9       -3.10298   0.00000   0.00008  -0.00002   0.00006  -3.10292
   D10        0.12051  -0.00000   0.00008  -0.00008  -0.00001   0.12050
   D11        0.03485  -0.00000   0.00003   0.00001   0.00004   0.03489
   D12       -3.02485  -0.00000   0.00003  -0.00006  -0.00003  -3.02488
   D13       -0.00101  -0.00000  -0.00001  -0.00008  -0.00009  -0.00109
   D14        3.10390  -0.00000  -0.00000  -0.00009  -0.00009   3.10381
   D15       -3.12586   0.00000  -0.00007   0.00001  -0.00006  -3.12592
   D16       -0.02095   0.00000  -0.00006  -0.00000  -0.00007  -0.02102
   D17       -3.11839   0.00000  -0.00001   0.00009   0.00008  -3.11832
   D18        0.00417   0.00000   0.00001   0.00011   0.00012   0.00429
   D19        0.00934   0.00000   0.00004   0.00002   0.00006   0.00939
   D20        3.13190  -0.00000   0.00006   0.00004   0.00010   3.13200
   D21        3.09919  -0.00000   0.00001  -0.00009  -0.00008   3.09911
   D22       -0.12357  -0.00000   0.00002  -0.00003  -0.00002  -0.12359
   D23       -0.02721  -0.00000  -0.00004  -0.00002  -0.00006  -0.02727
   D24        3.03321   0.00000  -0.00004   0.00004   0.00001   3.03322
   D25       -0.00693   0.00000  -0.00001   0.00001   0.00000  -0.00693
   D26        3.14106   0.00000   0.00000  -0.00000  -0.00000   3.14106
   D27        3.10458   0.00000  -0.00011   0.00006  -0.00005   3.10453
   D28       -0.03062   0.00000  -0.00010   0.00005  -0.00005  -0.03067
   D29        0.01158  -0.00000  -0.00001  -0.00002  -0.00003   0.01155
   D30       -3.10685  -0.00000  -0.00005  -0.00004  -0.00009  -3.10694
   D31        3.13954  -0.00000  -0.00004  -0.00007  -0.00010   3.13943
   D32        0.02111  -0.00000  -0.00007  -0.00009  -0.00016   0.02095
   D33        0.00472  -0.00000  -0.00000  -0.00003  -0.00004   0.00468
   D34       -3.13949  -0.00000  -0.00001  -0.00005  -0.00006  -3.13955
   D35       -3.12182   0.00000   0.00002   0.00002   0.00004  -3.12178
   D36        0.01716   0.00000   0.00001   0.00000   0.00002   0.01718
   D37       -0.00060  -0.00000  -0.00000  -0.00001  -0.00002  -0.00062
   D38        3.12868  -0.00000   0.00003  -0.00002   0.00001   3.12869
   D39       -3.10521   0.00000  -0.00001  -0.00000  -0.00001  -3.10522
   D40        0.02407  -0.00000   0.00003  -0.00001   0.00002   0.02409
   D41       -0.00570  -0.00000  -0.00000  -0.00005  -0.00005  -0.00575
   D42       -3.13428  -0.00000  -0.00002  -0.00005  -0.00007  -3.13435
   D43        3.11031  -0.00000   0.00003  -0.00002   0.00001   3.11032
   D44       -0.01826  -0.00000   0.00001  -0.00003  -0.00002  -0.01828
   D45       -0.00830   0.00000  -0.00003   0.00003  -0.00000  -0.00830
   D46       -3.13603   0.00000  -0.00000   0.00004   0.00004  -3.13600
   D47        3.12675   0.00000  -0.00004   0.00004   0.00000   3.12676
   D48       -0.00098   0.00000  -0.00001   0.00005   0.00004  -0.00094
   D49        0.00930  -0.00000   0.00003  -0.00002   0.00002   0.00932
   D50        3.13754  -0.00000   0.00001  -0.00002  -0.00002   3.13752
   D51       -3.12965   0.00000   0.00004   0.00000   0.00004  -3.12961
   D52       -0.00142   0.00000   0.00001  -0.00001   0.00001  -0.00141
   D53       -0.00092   0.00000   0.00001   0.00007   0.00008  -0.00083
   D54        3.11224   0.00000  -0.00001   0.00013   0.00012   3.11235
   D55       -3.12994   0.00000  -0.00002   0.00008   0.00005  -3.12988
   D56       -0.01679   0.00000  -0.00005   0.00013   0.00009  -0.01670
   D57        0.00411  -0.00000  -0.00001  -0.00004  -0.00005   0.00406
   D58       -3.11000  -0.00000   0.00002  -0.00010  -0.00008  -3.11008
   D59        3.13260  -0.00000   0.00001  -0.00003  -0.00002   3.13258
   D60        0.01849  -0.00000   0.00003  -0.00009  -0.00006   0.01844
   D61       -2.12990  -0.00000  -0.00013  -0.00009  -0.00022  -2.13012
   D62        2.06271   0.00000  -0.00014  -0.00006  -0.00020   2.06251
   D63       -0.03241   0.00000  -0.00014  -0.00007  -0.00021  -0.03262
   D64        1.02566  -0.00000  -0.00010  -0.00008  -0.00018   1.02548
   D65       -1.06492   0.00000  -0.00011  -0.00005  -0.00016  -1.06508
   D66        3.12315   0.00000  -0.00011  -0.00006  -0.00017   3.12298
   D67        2.15547  -0.00000   0.00007  -0.00025  -0.00018   2.15529
   D68       -2.03725  -0.00000   0.00007  -0.00024  -0.00017  -2.03742
   D69        0.05677  -0.00000   0.00006  -0.00022  -0.00017   0.05660
   D70       -1.01479  -0.00000   0.00005  -0.00020  -0.00015  -1.01494
   D71        1.07568  -0.00000   0.00004  -0.00018  -0.00014   1.07554
   D72       -3.11349  -0.00000   0.00003  -0.00017  -0.00013  -3.11362
   D73        0.05171  -0.00000  -0.00035  -0.00000  -0.00035   0.05136
   D74        3.12695  -0.00000  -0.00020  -0.00004  -0.00024   3.12672
   D75        3.10692   0.00000   0.00091   0.00005   0.00096   3.10788
   D76       -0.10102  -0.00000   0.00106   0.00001   0.00107  -0.09995
   D77       -0.04189   0.00000   0.00036  -0.00002   0.00034  -0.04154
   D78        3.07549   0.00000   0.00031  -0.00004   0.00027   3.07576
   D79       -3.09289  -0.00001  -0.00096  -0.00008  -0.00103  -3.09392
   D80        0.02449  -0.00001  -0.00101  -0.00010  -0.00111   0.02338
   D81        1.41943  -0.00000  -0.00074   0.00013  -0.00061   1.41882
   D82       -1.62661  -0.00001  -0.00074   0.00006  -0.00069  -1.62730
   D83       -1.81284   0.00000   0.00058   0.00018   0.00076  -1.81207
   D84        1.42431  -0.00000   0.00057   0.00011   0.00069   1.42500
   D85       -0.02173   0.00000   0.00009   0.00004   0.00013  -0.02161
   D86        3.09499   0.00000   0.00014   0.00001   0.00015   3.09515
   D87       -3.09373   0.00000  -0.00007   0.00008   0.00001  -3.09372
   D88        0.02299   0.00000  -0.00001   0.00005   0.00004   0.02303
   D89        1.39078   0.00000  -0.00068   0.00010  -0.00059   1.39019
   D90       -1.62507   0.00000  -0.00082   0.00011  -0.00071  -1.62578
   D91       -1.81718   0.00000  -0.00053   0.00005  -0.00048  -1.81766
   D92        1.45015  -0.00000  -0.00067   0.00007  -0.00060   1.44955
   D93       -0.01744  -0.00000   0.00015  -0.00006   0.00010  -0.01734
   D94        2.95199  -0.00000  -0.00016  -0.00008  -0.00024   2.95175
   D95       -3.13467  -0.00000   0.00010  -0.00003   0.00007  -3.13460
   D96       -0.16524  -0.00000  -0.00022  -0.00005  -0.00027  -0.16551
   D97        0.02678   0.00000  -0.00014   0.00004  -0.00010   0.02668
   D98       -3.02308   0.00000  -0.00010   0.00002  -0.00008  -3.02317
   D99       -2.93097   0.00000   0.00020   0.00006   0.00026  -2.93071
   D100       0.30236   0.00000   0.00023   0.00005   0.00028   0.30263
   D101       2.15398  -0.00000   0.00013  -0.00001   0.00012   2.15410
   D102      -2.12327   0.00000   0.00012  -0.00001   0.00011  -2.12316
   D103       0.17283  -0.00000   0.00014  -0.00001   0.00013   0.17296
   D104      -1.16942  -0.00000  -0.00020  -0.00004  -0.00024  -1.16966
   D105       0.83651  -0.00000  -0.00020  -0.00004  -0.00024   0.83627
   D106       3.13261  -0.00000  -0.00019  -0.00003  -0.00022   3.13239
   D107       0.00363  -0.00000  -0.00013  -0.00000  -0.00013   0.00351
   D108      -3.11401  -0.00000  -0.00007   0.00002  -0.00005  -3.11406
   D109       3.05607   0.00000  -0.00016   0.00002  -0.00015   3.05592
   D110      -0.06158   0.00000  -0.00011   0.00004  -0.00007  -0.06164
   D111      -1.72955   0.00000  -0.00018  -0.00001  -0.00019  -1.72974
   D112       1.61107   0.00000  -0.00001  -0.00014  -0.00015   1.61092
   D113       1.50221   0.00000  -0.00014  -0.00003  -0.00017   1.50204
   D114      -1.44034  -0.00000   0.00002  -0.00016  -0.00013  -1.44048
   D115      -0.00139  -0.00000  -0.00000   0.00001   0.00000  -0.00139
   D116      -3.11082   0.00000  -0.00002   0.00003   0.00000  -3.11082
   D117       3.13767   0.00000  -0.00003   0.00002  -0.00001   3.13766
   D118       0.02824   0.00000  -0.00004   0.00003  -0.00001   0.02823
   D119      -3.13504   0.00000   0.00001  -0.00001  -0.00000  -3.13504
   D120       0.00472  -0.00000   0.00001  -0.00002  -0.00000   0.00472
   D121       0.00862  -0.00000   0.00003  -0.00001   0.00001   0.00863
   D122      -3.13480  -0.00000   0.00003  -0.00002   0.00001  -3.13479
   D123       0.15597  -0.00000   0.00012  -0.00007   0.00005   0.15602
   D124       3.12524   0.00000  -0.00003   0.00005   0.00002   3.12526
   D125      -2.98791  -0.00000   0.00009  -0.00006   0.00003  -2.98788
   D126      -0.01864   0.00000  -0.00005   0.00006   0.00000  -0.01864
   D127       0.00547  -0.00000   0.00002  -0.00001   0.00001   0.00548
   D128       3.11756   0.00000   0.00003   0.00003   0.00006   3.11762
   D129      -3.10884  -0.00000   0.00004  -0.00008  -0.00004  -3.10889
   D130       0.00325  -0.00000   0.00004  -0.00004   0.00001   0.00325
   D131      -3.13522  -0.00000  -0.00002   0.00001  -0.00001  -3.13523
   D132      -0.00182   0.00000  -0.00003   0.00002  -0.00001  -0.00183
   D133      -0.01599   0.00000  -0.00004   0.00007   0.00003  -0.01596
   D134       3.11741   0.00000  -0.00004   0.00007   0.00003   3.11745
   D135      -0.17082   0.00000  -0.00010   0.00009  -0.00001  -0.17083
   D136       3.13839   0.00000   0.00004  -0.00001   0.00003   3.13841
   D137       2.99552  -0.00000  -0.00009   0.00003  -0.00006   2.99546
   D138       0.02154  -0.00000   0.00005  -0.00008  -0.00002   0.02152
   D139      -0.00132   0.00000  -0.00001   0.00000  -0.00001  -0.00133
   D140      -3.13104  -0.00000  -0.00001  -0.00000  -0.00002  -3.13106
   D141       3.10788  -0.00000   0.00001  -0.00002  -0.00001   3.10786
   D142      -0.02185  -0.00000   0.00000  -0.00002  -0.00002  -0.02186
   D143       0.00445  -0.00000   0.00001  -0.00003  -0.00003   0.00442
   D144      -3.12724  -0.00000   0.00001  -0.00004  -0.00003  -3.12727
   D145      -3.13496  -0.00000   0.00000  -0.00002  -0.00002  -3.13498
   D146       0.01654  -0.00000   0.00000  -0.00003  -0.00003   0.01651
   D147      -0.00536   0.00000  -0.00001   0.00002   0.00001  -0.00535
   D148       3.13828   0.00000  -0.00002   0.00001  -0.00001   3.13828
   D149       3.13382  -0.00000   0.00000   0.00000   0.00001   3.13383
   D150      -0.00572  -0.00000  -0.00001  -0.00000  -0.00001  -0.00573
   D151      -0.00418   0.00000  -0.00000  -0.00001  -0.00001  -0.00420
   D152       3.12729   0.00000  -0.00001   0.00004   0.00003   3.12732
   D153      -3.11618  -0.00000  -0.00001  -0.00005  -0.00006  -3.11625
   D154       0.01529  -0.00000  -0.00002  -0.00001  -0.00002   0.01527
   D155      -0.00337  -0.00000   0.00002  -0.00000   0.00001  -0.00336
   D156       3.14143   0.00000   0.00001   0.00000   0.00001   3.14144
   D157       3.12730   0.00000   0.00001   0.00001   0.00002   3.12731
   D158      -0.01109   0.00000   0.00000   0.00002   0.00002  -0.01107
   D159       0.00067  -0.00000   0.00002  -0.00000   0.00002   0.00069
   D160      -3.13475  -0.00000   0.00003  -0.00002   0.00001  -3.13474
   D161       3.13023   0.00000   0.00002   0.00000   0.00002   3.13025
   D162      -0.00519  -0.00000   0.00003  -0.00001   0.00002  -0.00517
   D163       0.00271  -0.00000  -0.00001  -0.00001  -0.00001   0.00269
   D164       3.13790   0.00000  -0.00002   0.00001  -0.00001   3.13789
   D165      -3.14098  -0.00000   0.00000  -0.00000   0.00000  -3.14097
   D166      -0.00578   0.00000  -0.00001   0.00002   0.00001  -0.00578
   D167      -0.00079   0.00000  -0.00001   0.00002   0.00002  -0.00078
   D168      -3.13918  -0.00000   0.00001  -0.00002  -0.00000  -3.13918
   D169      -3.13206  -0.00000  -0.00000  -0.00002  -0.00003  -3.13209
   D170       0.01274  -0.00000   0.00002  -0.00007  -0.00005   0.01270
   D171       0.00461  -0.00000  -0.00000  -0.00002  -0.00002   0.00459
   D172      -3.14009   0.00000  -0.00002   0.00002   0.00000  -3.14009
   D173      -3.14023  -0.00000   0.00001  -0.00002  -0.00002  -3.14025
   D174      -0.00175   0.00000  -0.00001   0.00002   0.00000  -0.00175
   D175      -1.04502   0.00000   0.00002   0.00002   0.00004  -1.04498
   D176      -3.13913   0.00000   0.00002   0.00001   0.00003  -3.13910
   D177       1.05011   0.00000   0.00002   0.00001   0.00003   1.05014
   D178       2.10305   0.00000   0.00003  -0.00000   0.00003   2.10308
   D179       0.00893  -0.00000   0.00003  -0.00000   0.00003   0.00896
   D180      -2.08501   0.00000   0.00004  -0.00001   0.00003  -2.08498
   D181       2.07016  -0.00000  -0.00003  -0.00003  -0.00006   2.07010
   D182      -0.02584   0.00000  -0.00003  -0.00003  -0.00006  -0.02590
   D183      -2.12043  -0.00000  -0.00003  -0.00003  -0.00006  -2.12049
   D184      -1.06818  -0.00000  -0.00001  -0.00007  -0.00008  -1.06826
   D185       3.11901   0.00000  -0.00001  -0.00008  -0.00008   3.11893
   D186       1.02441  -0.00000  -0.00001  -0.00007  -0.00008   1.02433
   D187       3.12601   0.00000   0.00003  -0.00002   0.00001   3.12602
   D188      -1.06802   0.00000   0.00003  -0.00002   0.00001  -1.06801
   D189       1.03292   0.00000   0.00003  -0.00002   0.00001   1.03293
   D190      -1.06877  -0.00000   0.00004  -0.00005  -0.00001  -1.06879
   D191       1.02038  -0.00000   0.00003  -0.00005  -0.00001   1.02037
   D192       3.12133  -0.00000   0.00003  -0.00005  -0.00002   3.12131
   D193       0.98393  -0.00000   0.00004  -0.00005  -0.00001   0.98391
   D194       3.07308  -0.00000   0.00004  -0.00005  -0.00002   3.07306
   D195      -1.10916  -0.00000   0.00004  -0.00006  -0.00002  -1.10918
   D196       1.05405  -0.00000   0.00004  -0.00008  -0.00004   1.05401
   D197      -3.13851  -0.00000   0.00005  -0.00009  -0.00005  -3.13856
   D198      -1.04678  -0.00000   0.00005  -0.00009  -0.00004  -1.04682
   D199      -1.03529   0.00000   0.00002  -0.00005  -0.00003  -1.03533
   D200       1.05533   0.00000   0.00003  -0.00007  -0.00004   1.05529
   D201      -3.13613   0.00000   0.00003  -0.00006  -0.00003  -3.13616
   D202      -3.08865   0.00000   0.00003  -0.00006  -0.00003  -3.08868
   D203      -0.99803   0.00000   0.00003  -0.00007  -0.00003  -0.99806
   D204       1.09370   0.00000   0.00004  -0.00007  -0.00003   1.09367
   D205      -1.04802  -0.00000   0.00002   0.00005   0.00007  -1.04794
   D206       1.07793   0.00000   0.00002   0.00006   0.00008   1.07800
   D207      -3.12784   0.00000   0.00001   0.00006   0.00007  -3.12777
   D208       1.06111   0.00000   0.00002   0.00007   0.00009   1.06120
   D209      -3.09612   0.00000   0.00002   0.00007   0.00009  -3.09603
   D210      -1.01871   0.00000   0.00002   0.00007   0.00009  -1.01863
   D211       3.12867   0.00000   0.00003   0.00006   0.00008   3.12875
   D212      -1.02857   0.00000   0.00002   0.00006   0.00008  -1.02849
   D213       1.04884   0.00000   0.00002   0.00006   0.00008   1.04892
   D214       1.04068   0.00000   0.00001   0.00001   0.00002   1.04070
   D215       3.13090   0.00000   0.00000   0.00003   0.00003   3.13093
   D216      -1.06450   0.00000   0.00000   0.00003   0.00004  -1.06446
   D217      -1.04496  -0.00000   0.00002  -0.00002   0.00000  -1.04496
   D218       1.04526  -0.00000   0.00002  -0.00001   0.00001   1.04527
   D219       3.13305  -0.00000   0.00002  -0.00000   0.00002   3.13307
   D220      -3.09745  -0.00000   0.00003  -0.00003  -0.00000  -3.09745
   D221      -1.00723  -0.00000   0.00002  -0.00002   0.00001  -1.00722
   D222       1.08056  -0.00000   0.00002  -0.00001   0.00001   1.08058
   D223       3.13200  -0.00000   0.00000   0.00001   0.00001   3.13202
   D224      -1.05998  -0.00000   0.00001   0.00000   0.00001  -1.05997
   D225       1.04047  -0.00000   0.00000   0.00001   0.00001   1.04048
   D226      -1.05780  -0.00000   0.00001  -0.00001   0.00000  -1.05780
   D227       1.03340  -0.00000   0.00001  -0.00002  -0.00001   1.03339
   D228       3.13385  -0.00000   0.00001  -0.00001  -0.00000   3.13385
   D229       0.99274   0.00000   0.00001   0.00001   0.00001   0.99276
   D230       3.08394   0.00000   0.00001  -0.00000   0.00001   3.08395
   D231      -1.09879   0.00000   0.00000   0.00001   0.00001  -1.09878
   D232      -1.07975  -0.00000  -0.00008   0.00019   0.00012  -1.07964
   D233       1.04811  -0.00000  -0.00008   0.00019   0.00011   1.04823
   D234       3.12671  -0.00000  -0.00008   0.00018   0.00010   3.12682
   D235       3.08805   0.00000  -0.00010   0.00025   0.00015   3.08820
   D236      -1.06727   0.00000  -0.00010   0.00025   0.00015  -1.06712
   D237       1.01133   0.00000  -0.00010   0.00024   0.00014   1.01147
   D238       1.02196   0.00000  -0.00009   0.00023   0.00014   1.02210
   D239      -3.13336   0.00000  -0.00009   0.00023   0.00014  -3.13322
   D240      -1.05476   0.00000  -0.00009   0.00022   0.00013  -1.05463
   D241       1.04905  -0.00000  -0.00002   0.00001  -0.00001   1.04903
   D242      -3.13983  -0.00000  -0.00002   0.00001  -0.00001  -3.13984
   D243      -1.04489  -0.00000  -0.00001  -0.00000  -0.00002  -1.04490
   D244      -3.09198   0.00000  -0.00003   0.00003   0.00000  -3.09198
   D245      -0.99767   0.00000  -0.00002   0.00002   0.00000  -0.99766
   D246       1.09728  -0.00000  -0.00001   0.00001  -0.00000   1.09727
   D247      -1.04635   0.00000  -0.00003   0.00003   0.00000  -1.04635
   D248       1.04796   0.00000  -0.00002   0.00002  -0.00000   1.04796
   D249      -3.14029   0.00000  -0.00001   0.00001  -0.00000  -3.14029
   D250      -1.05303   0.00000  -0.00000  -0.00009  -0.00009  -1.05312
   D251       1.06923   0.00000   0.00001  -0.00008  -0.00008   1.06915
   D252      -3.13422   0.00000  -0.00000  -0.00008  -0.00008  -3.13430
   D253       3.12049  -0.00000   0.00001  -0.00011  -0.00010   3.12039
   D254      -1.04043  -0.00000   0.00002  -0.00011  -0.00009  -1.04052
   D255       1.03930  -0.00000   0.00001  -0.00010  -0.00009   1.03921
   D256       1.05870  -0.00000   0.00001  -0.00011  -0.00010   1.05860
   D257      -3.10223  -0.00000   0.00002  -0.00010  -0.00009  -3.10231
   D258      -1.02249  -0.00000   0.00001  -0.00010  -0.00009  -1.02258
   D259       1.04641  -0.00000  -0.00002   0.00002   0.00000   1.04641
   D260       3.13996  -0.00000  -0.00002   0.00003   0.00001   3.13997
   D261      -1.04970  -0.00000  -0.00003   0.00003   0.00000  -1.04970
   D262       3.13986   0.00000  -0.00004   0.00003  -0.00000   3.13985
   D263      -1.04977   0.00000  -0.00004   0.00004   0.00000  -1.04977
   D264       1.04375   0.00000  -0.00004   0.00004   0.00000   1.04375
   D265      -1.09592  -0.00000  -0.00003   0.00002  -0.00001  -1.09593
   D266       0.99763  -0.00000  -0.00003   0.00003  -0.00000   0.99763
   D267       3.09115  -0.00000  -0.00003   0.00003  -0.00000   3.09115
   D268       1.05124  -0.00000  -0.00001   0.00000  -0.00001   1.05123
   D269      -3.13927  -0.00000  -0.00001   0.00000  -0.00001  -3.13928
   D270      -1.04582  -0.00000  -0.00001  -0.00000  -0.00001  -1.04583
   D271      -3.09261   0.00000  -0.00001   0.00001  -0.00000  -3.09261
   D272      -0.99993   0.00000  -0.00001   0.00001   0.00000  -0.99993
   D273       1.09351   0.00000  -0.00001   0.00001   0.00000   1.09351
   D274      -1.04429  -0.00000  -0.00001   0.00000  -0.00000  -1.04429
   D275       1.04839  -0.00000  -0.00001   0.00000  -0.00000   1.04839
   D276      -3.14134  -0.00000  -0.00001   0.00000  -0.00000  -3.14135
   D277      -1.06348  -0.00000   0.00002  -0.00000   0.00002  -1.06346
   D278       1.05873   0.00000   0.00002   0.00001   0.00003   1.05876
   D279       3.13987  -0.00000   0.00002   0.00000   0.00002   3.13990
   D280       3.10966  -0.00000   0.00002  -0.00000   0.00002   3.10968
   D281      -1.05131   0.00000   0.00001   0.00001   0.00003  -1.05129
   D282       1.02983   0.00000   0.00002   0.00000   0.00002   1.02985
   D283       1.04529   0.00000   0.00001   0.00001   0.00002   1.04531
   D284      -3.11568   0.00000   0.00001   0.00002   0.00003  -3.11566
   D285      -1.03454   0.00000   0.00001   0.00001   0.00002  -1.03452
   D286      -1.05314   0.00000   0.00000  -0.00000  -0.00000  -1.05315
   D287       1.04146   0.00000  -0.00000   0.00000   0.00000   1.04146
   D288       3.13571   0.00000   0.00000  -0.00000   0.00000   3.13571
   D289       1.04320  -0.00000   0.00000  -0.00001  -0.00001   1.04319
   D290       3.13780  -0.00000   0.00000  -0.00001  -0.00000   3.13780
   D291      -1.05113  -0.00000   0.00000  -0.00001  -0.00000  -1.05113
   D292       3.09116  -0.00000   0.00001  -0.00002  -0.00001   3.09115
   D293      -1.09743  -0.00000   0.00001  -0.00001  -0.00000  -1.09743
   D294       0.99683  -0.00000   0.00001  -0.00001  -0.00000   0.99682
   D295      -1.28280   0.00000  -0.00002   0.00001  -0.00001  -1.28281
   D296       1.84671   0.00000  -0.00001   0.00001  -0.00001   1.84670
   D297       2.94234  -0.00000  -0.00003   0.00002  -0.00001   2.94233
   D298      -0.21133  -0.00000  -0.00002   0.00001  -0.00001  -0.21134
   D299       0.69907   0.00000  -0.00002   0.00002  -0.00001   0.69906
   D300      -2.45461   0.00000  -0.00002   0.00001  -0.00001  -2.45462
   D301       3.12077   0.00000  -0.00000   0.00001   0.00001   3.12077
   D302      -0.03280   0.00000   0.00001   0.00000   0.00001  -0.03279
   D303      -0.00855   0.00000  -0.00001   0.00001   0.00001  -0.00854
   D304       3.12107   0.00000   0.00000   0.00001   0.00001   3.12108
   D305      -3.11672  -0.00000   0.00002  -0.00002   0.00000  -3.11671
   D306       0.01281  -0.00000   0.00003  -0.00001   0.00002   0.01283
   D307       0.01252  -0.00000   0.00003  -0.00002   0.00000   0.01253
   D308      -3.14114  -0.00000   0.00004  -0.00001   0.00002  -3.14112
   D309      -0.00172   0.00000  -0.00002   0.00000  -0.00001  -0.00173
   D310       3.13755  -0.00000   0.00000  -0.00001  -0.00001   3.13755
   D311      -3.13119   0.00000  -0.00002   0.00001  -0.00002  -3.13121
   D312       0.00809  -0.00000  -0.00001  -0.00001  -0.00001   0.00807
   D313      -0.00625   0.00000  -0.00003   0.00002  -0.00001  -0.00626
   D314       3.12352   0.00000  -0.00002   0.00002  -0.00000   3.12352
   D315      -3.13552   0.00000  -0.00004   0.00001  -0.00003  -3.13555
   D316      -0.00575   0.00000  -0.00003   0.00001  -0.00002  -0.00578
   D317       0.00784  -0.00000   0.00002  -0.00001   0.00001   0.00785
   D318      -3.13583  -0.00000   0.00002  -0.00002  -0.00000  -3.13583
   D319      -3.13143   0.00000   0.00000   0.00001   0.00001  -3.13142
   D320       0.00808  -0.00000   0.00001  -0.00001  -0.00000   0.00808
   D321      -0.00381   0.00000   0.00000  -0.00000   0.00000  -0.00381
   D322       3.13987   0.00000  -0.00000   0.00001   0.00001   3.13988
   D323      -3.13350   0.00000   0.00000  -0.00001  -0.00000  -3.13350
   D324       0.01018   0.00000  -0.00000   0.00001   0.00000   0.01018
   D325       0.15036  -0.00000  -0.00007   0.00001  -0.00006   0.15030
   D326      -3.00327  -0.00000  -0.00008  -0.00000  -0.00008  -3.00334
   D327      -3.10025   0.00000   0.00005  -0.00000   0.00005  -3.10020
   D328       0.02931   0.00000   0.00004  -0.00001   0.00003   0.02935
   D329      -0.14088   0.00000   0.00012  -0.00007   0.00005  -0.14083
   D330       3.01127   0.00000   0.00008   0.00001   0.00009   3.01136
   D331       3.10762  -0.00000   0.00000  -0.00006  -0.00006   3.10757
   D332      -0.02341   0.00000  -0.00004   0.00002  -0.00002  -0.02342
   D333      -3.12955  -0.00000   0.00003  -0.00005  -0.00002  -3.12956
   D334       0.03916  -0.00000   0.00006  -0.00005   0.00001   0.03917
   D335       0.02536   0.00000   0.00004  -0.00003   0.00000   0.02536
   D336      -3.08912  -0.00000   0.00007  -0.00004   0.00003  -3.08909
   D337      -0.02341  -0.00000  -0.00003   0.00000  -0.00003  -0.02344
   D338       3.12938   0.00000  -0.00005   0.00007   0.00002   3.12940
   D339       3.10722  -0.00000  -0.00004  -0.00001  -0.00005   3.10717
   D340      -0.02317   0.00000  -0.00005   0.00006   0.00001  -0.02317
   D341      -3.12874   0.00000  -0.00002   0.00008   0.00006  -3.12868
   D342      -0.02308   0.00000  -0.00003   0.00005   0.00002  -0.02306
   D343       0.00118   0.00000   0.00002  -0.00001   0.00001   0.00119
   D344       3.10683  -0.00000   0.00002  -0.00004  -0.00002   3.10681
   D345       0.00859  -0.00000   0.00002  -0.00002  -0.00001   0.00859
   D346       3.13348  -0.00000   0.00001  -0.00006  -0.00005   3.13343
   D347      -3.12335   0.00000  -0.00002   0.00005   0.00003  -3.12332
   D348       0.00154  -0.00000  -0.00003   0.00001  -0.00001   0.00152
   D349      -0.00897  -0.00000   0.00000   0.00000   0.00001  -0.00896
   D350       3.13625   0.00000  -0.00002   0.00004   0.00002   3.13627
   D351       3.10535   0.00000  -0.00003   0.00001  -0.00002   3.10533
   D352      -0.03262   0.00000  -0.00005   0.00004  -0.00001  -0.03263
   D353       0.00896   0.00000   0.00001   0.00001   0.00002   0.00898
   D354      -3.11225   0.00000   0.00002   0.00006   0.00008  -3.11217
   D355       3.13695  -0.00000   0.00003  -0.00007  -0.00004   3.13691
   D356       0.01574  -0.00000   0.00003  -0.00002   0.00001   0.01576
   D357       0.00377  -0.00000   0.00003  -0.00005  -0.00002   0.00375
   D358      -3.13903  -0.00000   0.00004  -0.00005  -0.00000  -3.13903
   D359      -3.12281   0.00000   0.00001   0.00004   0.00005  -3.12276
   D360       0.01758   0.00000   0.00003   0.00004   0.00007   0.01765
   D361      -0.00111  -0.00000  -0.00001   0.00001   0.00000  -0.00111
   D362       3.12901  -0.00000  -0.00001  -0.00001  -0.00002   3.12899
   D363      -3.10647   0.00000   0.00000   0.00004   0.00004  -3.10643
   D364       0.02365   0.00000  -0.00000   0.00002   0.00001   0.02367
   D365      -0.00436  -0.00000   0.00001  -0.00001  -0.00000  -0.00436
   D366      -3.13560   0.00000   0.00001  -0.00001  -0.00000  -3.13561
   D367       3.11474  -0.00000   0.00000  -0.00007  -0.00006   3.11467
   D368      -0.01651  -0.00000   0.00000  -0.00007  -0.00007  -0.01658
   D369      -0.00945  -0.00000  -0.00003   0.00000  -0.00002  -0.00947
   D370      -3.13880   0.00000  -0.00005   0.00002  -0.00003  -3.13883
   D371       3.12844  -0.00000  -0.00000  -0.00003  -0.00003   3.12841
   D372      -0.00092   0.00000  -0.00002  -0.00002  -0.00004  -0.00096
   D373       0.01196   0.00000   0.00001   0.00002   0.00003   0.01199
   D374      -3.14142  -0.00000   0.00003   0.00001   0.00004  -3.14138
   D375      -3.12842   0.00000  -0.00000   0.00002   0.00001  -3.12841
   D376       0.00139   0.00000   0.00002   0.00000   0.00002   0.00141
   D377      -0.00162  -0.00000  -0.00001  -0.00001  -0.00002  -0.00164
   D378       3.11518  -0.00000  -0.00002   0.00002  -0.00000   3.11518
   D379      -3.13150   0.00000  -0.00001   0.00002   0.00000  -3.13150
   D380      -0.01470   0.00000  -0.00002   0.00004   0.00002  -0.01467
   D381       0.00439   0.00000   0.00001   0.00001   0.00002   0.00441
   D382      -3.11327   0.00000   0.00002  -0.00002   0.00000  -3.11327
   D383       3.13558  -0.00000   0.00001   0.00001   0.00002   3.13560
   D384       0.01792   0.00000   0.00002  -0.00001   0.00000   0.01792
   D385      -0.03465   0.00000   0.00007  -0.00006   0.00001  -0.03464
   D386       2.06102  -0.00000   0.00007  -0.00006   0.00001   2.06102
   D387      -2.13158  -0.00000   0.00008  -0.00007   0.00001  -2.13158
   D388       3.11926   0.00000   0.00005  -0.00005   0.00000   3.11926
   D389      -1.06826   0.00000   0.00004  -0.00005  -0.00000  -1.06826
   D390       1.02232  -0.00000   0.00006  -0.00006  -0.00000   1.02232
   D391       0.05162  -0.00000  -0.00005  -0.00013  -0.00018   0.05144
   D392       2.15030   0.00000  -0.00004  -0.00014  -0.00018   2.15012
   D393      -2.04287   0.00000  -0.00004  -0.00014  -0.00018  -2.04305
   D394      -3.11491  -0.00000  -0.00005  -0.00011  -0.00016  -3.11507
   D395      -1.01622  -0.00000  -0.00005  -0.00012  -0.00017  -1.01639
   D396       1.07379  -0.00000  -0.00005  -0.00011  -0.00016   1.07362
   D397      -1.04770   0.00000   0.00003  -0.00005  -0.00002  -1.04772
   D398       1.07912   0.00000   0.00003  -0.00005  -0.00002   1.07910
   D399      -3.12725   0.00000   0.00003  -0.00004  -0.00001  -3.12726
   D400       3.12937  -0.00000   0.00004  -0.00006  -0.00002   3.12934
   D401      -1.02700  -0.00000   0.00004  -0.00006  -0.00002  -1.02703
   D402       1.04982   0.00000   0.00003  -0.00005  -0.00002   1.04980
   D403       1.05985  -0.00000   0.00004  -0.00006  -0.00002   1.05983
   D404      -3.09651  -0.00000   0.00003  -0.00006  -0.00002  -3.09654
   D405      -1.01969   0.00000   0.00003  -0.00004  -0.00002  -1.01971
   D406      -1.04791  -0.00000   0.00005  -0.00009  -0.00004  -1.04795
   D407       1.05408  -0.00000   0.00006  -0.00009  -0.00003   1.05405
   D408      -3.13910  -0.00000   0.00006  -0.00010  -0.00004  -3.13914
   D409       1.09217  -0.00000   0.00005  -0.00008  -0.00004   1.09214
   D410      -3.08902  -0.00000   0.00005  -0.00008  -0.00003  -3.08904
   D411      -0.99902  -0.00000   0.00005  -0.00009  -0.00004  -0.99905
   D412      -3.13591   0.00000   0.00004  -0.00008  -0.00004  -3.13595
   D413      -1.03392   0.00000   0.00004  -0.00007  -0.00003  -1.03395
   D414       1.05608   0.00000   0.00004  -0.00008  -0.00004   1.05605
   D415       1.02929  -0.00000   0.00003  -0.00005  -0.00002   1.02927
   D416       3.12223   0.00000   0.00002  -0.00004  -0.00002   3.12221
   D417      -1.07271   0.00000   0.00002  -0.00003  -0.00000  -1.07271
   D418      -1.11166  -0.00000   0.00004  -0.00006  -0.00002  -1.11169
   D419       0.98128  -0.00000   0.00003  -0.00006  -0.00002   0.98126
   D420       3.06953  -0.00000   0.00003  -0.00004  -0.00001   3.06952
   D421       3.11677  -0.00000   0.00004  -0.00005  -0.00001   3.11675
   D422      -1.07347  -0.00000   0.00003  -0.00004  -0.00001  -1.07348
   D423       1.01477   0.00000   0.00003  -0.00003   0.00000   1.01478
   D424      -1.07845  -0.00000  -0.00001   0.00000  -0.00000  -1.07845
   D425       1.05070  -0.00000  -0.00000  -0.00000  -0.00000   1.05070
   D426       3.12853  -0.00000  -0.00001  -0.00001  -0.00001   3.12852
   D427       3.09087   0.00000  -0.00001   0.00003   0.00002   3.09090
   D428      -1.06316   0.00000  -0.00000   0.00003   0.00002  -1.06314
   D429       1.01467   0.00000  -0.00001   0.00002   0.00001   1.01469
   D430       1.02277   0.00000  -0.00001   0.00003   0.00003   1.02280
   D431      -3.13126   0.00000  -0.00000   0.00003   0.00003  -3.13124
   D432      -1.05343   0.00000  -0.00001   0.00002   0.00002  -1.05341
   D433       1.04653   0.00000  -0.00001  -0.00005  -0.00006   1.04646
   D434       3.13596   0.00000  -0.00001  -0.00004  -0.00005   3.13590
   D435      -1.05977   0.00000  -0.00001  -0.00004  -0.00005  -1.05982
   D436      -3.09189  -0.00000  -0.00000  -0.00007  -0.00008  -3.09196
   D437      -1.00246   0.00000  -0.00000  -0.00006  -0.00006  -1.00252
   D438       1.08500  -0.00000  -0.00000  -0.00006  -0.00006   1.08494
   D439      -1.03749  -0.00000  -0.00001  -0.00008  -0.00009  -1.03758
   D440       1.05194  -0.00000  -0.00001  -0.00006  -0.00007   1.05186
   D441       3.13940  -0.00000  -0.00001  -0.00006  -0.00007   3.13932
   D442      -1.06071   0.00000  -0.00000   0.00001   0.00001  -1.06070
[...]
 Alpha virt. eigenvalues --    2.64696   2.65272   2.65380   2.65737   2.65880
 Alpha virt. eigenvalues --    2.66002   2.66331   2.66577   2.66651   2.66887
 Alpha virt. eigenvalues --    2.67115   2.67314   2.67486   2.67588   2.67788
 Alpha virt. eigenvalues --    2.68039   2.68217   2.68681   2.68725   2.68907
 Alpha virt. eigenvalues --    2.69068   2.69316   2.69357   2.69525   2.69882
 Alpha virt. eigenvalues --    2.70123   2.70309   2.70479   2.70897   2.71357
 Alpha virt. eigenvalues --    2.71828   2.72045   2.72737   2.73500   2.74683
 Alpha virt. eigenvalues --    2.75045   2.75284   2.75498   2.75536   2.75754
 Alpha virt. eigenvalues --    2.76024   2.76278   2.76608   2.77124   2.77293
 Alpha virt. eigenvalues --    2.77696   2.77969   2.78147   2.79357   2.79627
 Alpha virt. eigenvalues --    2.79683   2.79729   2.79873   2.79981   2.80137
 Alpha virt. eigenvalues --    2.80170   2.80232   2.80312   2.80508   2.80730
 Alpha virt. eigenvalues --    2.80803   2.80854   2.81015   2.81031   2.81410
 Alpha virt. eigenvalues --    2.81524   2.81826   2.82046   2.82350   2.82572
 Alpha virt. eigenvalues --    2.82893   2.83056   2.83171   2.83813   2.84186
 Alpha virt. eigenvalues --    2.84955   2.85124   2.85483   2.85657   2.86009
 Alpha virt. eigenvalues --    2.86243   2.86668   2.88434   2.89040   2.89198
 Alpha virt. eigenvalues --    2.89809   2.90156   2.90465   2.90765   2.91204
 Alpha virt. eigenvalues --    2.91908   2.92086   2.92277   2.92435   2.92682
 Alpha virt. eigenvalues --    2.92919   2.93118   2.93202   2.93228   2.93276
 Alpha virt. eigenvalues --    2.93353   2.93799   2.93963   2.94221   2.94264
 Alpha virt. eigenvalues --    2.94385   2.94570   2.94644   2.94720   2.95739
 Alpha virt. eigenvalues --    2.96315   2.96636   2.98000   2.98410   2.98930
 Alpha virt. eigenvalues --    2.99140   2.99447   2.99559   2.99713   2.99873
 Alpha virt. eigenvalues --    2.99973   3.00025   3.00180   3.00458   3.00638
 Alpha virt. eigenvalues --    3.01157   3.01554   3.02050   3.02115   3.02561
 Alpha virt. eigenvalues --    3.02780   3.02902   3.03230   3.03389   3.04247
 Alpha virt. eigenvalues --    3.05393   3.06649   3.07849   3.09079   3.09491
 Alpha virt. eigenvalues --    3.09606   3.09672   3.10069   3.10103   3.10717
 Alpha virt. eigenvalues --    3.14609   3.15475   3.17054   3.17691   3.17997
 Alpha virt. eigenvalues --    3.20628   3.21354   3.21767   3.22616   3.23073
 Alpha virt. eigenvalues --    3.23772   3.24037   3.24190   3.24411   3.24725
 Alpha virt. eigenvalues --    3.25570   3.25755   3.26471   3.26979   3.28273
 Alpha virt. eigenvalues --    3.28580   3.28698   3.29595   3.29788   3.30030
 Alpha virt. eigenvalues --    3.30153   3.30256   3.30379   3.30582   3.30889
 Alpha virt. eigenvalues --    3.30995   3.31362   3.31535   3.31565   3.31831
 Alpha virt. eigenvalues --    3.33897   3.34450   3.35273   3.35681   3.36450
 Alpha virt. eigenvalues --    3.36950   3.38453   3.39594   3.40324   3.40626
 Alpha virt. eigenvalues --    3.40998   3.41878   3.43387   3.45590   3.46232
 Alpha virt. eigenvalues --    3.46434   3.46963   3.47693   3.48229   3.48297
 Alpha virt. eigenvalues --    3.48510   3.48628   3.49224   3.49258   3.49370
 Alpha virt. eigenvalues --    3.49378   3.49750   3.49812   3.49891   3.49929
 Alpha virt. eigenvalues --    3.49987   3.50113   3.50273   3.50486   3.50652
 Alpha virt. eigenvalues --    3.50688   3.51069   3.51196   3.51347   3.51512
 Alpha virt. eigenvalues --    3.51777   3.51881   3.52026   3.53307   3.53434
 Alpha virt. eigenvalues --    3.56764   3.57000   3.57329   3.57516   3.57985
 Alpha virt. eigenvalues --    3.57986   3.58186   3.58227   3.58703   3.58787
 Alpha virt. eigenvalues --    3.59969   3.60490   3.60750   3.60971   3.61106
 Alpha virt. eigenvalues --    3.61374   3.66880   3.79062   3.79433   3.80683
 Alpha virt. eigenvalues --    3.87702   3.88019   3.89129   3.89929   3.96387
 Alpha virt. eigenvalues --    4.12022   4.14575   4.16182   4.17348   4.18915
 Alpha virt. eigenvalues --    4.19392   4.20323   4.20459   4.22088   4.23391
 Alpha virt. eigenvalues --    4.24654   4.25060   4.26349   4.26698   4.27093
 Alpha virt. eigenvalues --    4.27507   4.27677   4.28047   4.28685   4.29932
 Alpha virt. eigenvalues --    4.30625   4.30919   4.33928   4.35984   4.37412
 Alpha virt. eigenvalues --    4.38895   4.42102   4.44251   4.44659   4.45218
 Alpha virt. eigenvalues --    4.45310   4.45594   4.46254   4.46364   4.47179
 Alpha virt. eigenvalues --    4.48773   4.49930   4.51478   4.51494   4.53184
 Alpha virt. eigenvalues --    4.55340   4.55722   4.59037   4.59888   4.60139
 Alpha virt. eigenvalues --    4.60540   4.60852   4.60945   4.61009   4.61247
 Alpha virt. eigenvalues --    4.61545   4.61676   4.61872   4.62220   4.64176
 Alpha virt. eigenvalues --    4.65753   4.67220   4.67430   4.67902   4.68286
 Alpha virt. eigenvalues --    4.68901   4.69296   4.78214   4.78881   4.79492
 Alpha virt. eigenvalues --    4.79774   4.80207   4.80834   4.82264   4.86074
 Alpha virt. eigenvalues --    4.90886   4.91749   4.94087   4.97281   5.00802
 Alpha virt. eigenvalues --    5.01805   5.02674
          Condensed to atoms (all electrons):
 Mulliken charges:
               1
     1  C    0.313854
     2  C    0.321117
     3  C   -0.143630
     4  C    0.026083
     5  C   -0.165847
     6  C    0.029425
     7  C   -0.175438
     8  H    0.127628
     9  C   -0.200793
    10  C   -0.177699
    11  H    0.130786
    12  C   -0.201771
    13  C    0.119723
    14  H    0.121322
    15  H    0.123088
    16  C    0.119557
    17  H    0.118626
    18  H    0.124654
    19  C    0.208152
    20  C    0.226680
    21  C   -0.147110
    22  C   -0.236135
    23  C    0.212353
    24  C   -0.109972
    25  H    0.224564
    26  C    0.297921
    27  C    0.301493
    28  C   -0.133426
    29  C    0.008333
    30  C   -0.157736
    31  C    0.024936
    32  C   -0.178459
    33  H    0.148929
    34  C   -0.206075
    35  C   -0.177631
    36  H    0.133749
    37  C   -0.203975
    38  C    0.126249
    39  H    0.124371
    40  H    0.122810
    41  C    0.120070
    42  H    0.120165
    43  H    0.124802
    44  C   -0.066798
    45  C   -0.068161
    46  N   -0.759340
    47  N   -0.757008
    48  C   -0.067245
    49  C   -0.074243
    50  S    1.216584
    51  C   -0.212930
    52  C   -0.118755
    53  C   -0.112342
    54  C   -0.137976
    55  H    0.170726
    56  C   -0.124543
    57  H    0.191387
    58  C   -0.121953
    59  H    0.149081
    60  H    0.155936
    61  H    0.148724
    62  O   -0.548477
    63  O   -0.572171
    64  H    0.201795
    65  C   -0.363327
    66  H    0.124874
    67  H    0.123440
    68  H    0.136092
    69  C   -0.385617
    70  H    0.127093
    71  H    0.131437
    72  H    0.127442
    73  C   -0.365621
    74  H    0.128995
    75  H    0.125157
    76  H    0.123526
    77  C   -0.364519
    78  H    0.124397
    79  H    0.123611
    80  H    0.134420
    81  C   -0.381511
    82  H    0.128513
    83  H    0.129458
    84  H    0.126744
    85  C   -0.364079
    86  H    0.126896
    87  H    0.135770
    88  H    0.122908
    89  C   -0.370577
    90  H    0.124597
    91  H    0.121995
    92  H    0.140520
    93  C   -0.362590
    94  H    0.121635
    95  H    0.124555
    96  H    0.134961
    97  C   -0.386720
    98  H    0.129832
    99  H    0.129206
   100  H    0.126252
   101  C   -0.369274
   102  H    0.120540
   103  H    0.122392
   104  H    0.143140
   105  C   -0.362704
   106  H    0.122949
   107  H    0.121577
   108  H    0.134443
   109  C   -0.390950
   110  H    0.134884
   111  H    0.129652
   112  H    0.125411
   113  N   -0.752330
   114  C    0.316093
   115  C    0.321068
   116  C   -0.145027
   117  C    0.025953
   118  C   -0.166197
   119  C    0.029856
   120  C   -0.174442
   121  H    0.121100
   122  C   -0.202148
   123  C   -0.177826
   124  H    0.135721
   125  C   -0.202554
   126  C    0.119166
   127  H    0.117885
   128  H    0.123105
   129  C    0.118548
   130  H    0.121162
   131  H    0.123413
   132  C   -0.066397
   133  C   -0.068017
   134  C   -0.390955
   135  C   -0.362726
   136  C   -0.369160
   137  C   -0.386959
   138  C   -0.370462
   139  C   -0.362758
   140  H    0.133766
   141  H    0.129029
   142  H    0.125092
   143  H    0.134421
   144  H    0.123942
   145  H    0.120952
   146  H    0.142236
   147  H    0.119916
   148  H    0.123014
   149  H    0.132114
   150  H    0.128782
   151  H    0.125535
   152  H    0.123773
   153  H    0.121415
   154  H    0.139825
   155  H    0.123703
   156  H    0.136622
   157  H    0.120894
 Sum of Mulliken charges =  -0.00000
 Mulliken charges with hydrogens summed into heavy atoms:
               1
     1  C    0.313854
     2  C    0.321117
     3  C   -0.016002
     4  C    0.026083
     5  C   -0.035061
     6  C    0.029425
     7  C   -0.054116
     9  C   -0.077705
    10  C   -0.059073
    12  C   -0.077117
    13  C    0.119723
    16  C    0.119557
    19  C    0.208152
    20  C    0.226680
    21  C    0.077454
    22  C   -0.236135
    23  C    0.212353
    24  C    0.091823
    26  C    0.297921
    27  C    0.301493
    28  C    0.015503
    29  C    0.008333
    30  C   -0.023987
    31  C    0.024936
    32  C   -0.054087
    34  C   -0.083265
    35  C   -0.057466
    37  C   -0.079173
    38  C    0.126249
    41  C    0.120070
    44  C   -0.066798
    45  C   -0.068161
    46  N   -0.759340
    47  N   -0.757008
    48  C   -0.067245
    49  C   -0.074243
    50  S    1.216584
    51  C   -0.212930
    52  C    0.051971
    53  C    0.079045
    54  C    0.011105
    56  C    0.031393
    58  C    0.026771
    62  O   -0.548477
    63  O   -0.572171
    65  C    0.021078
    69  C    0.000355
    73  C    0.012056
    77  C    0.017908
    81  C    0.003204
    85  C    0.021495
    89  C    0.016535
    93  C    0.018561
    97  C   -0.001430
   101  C    0.016799
   105  C    0.016266
   109  C   -0.001004
   113  N   -0.752330
   114  C    0.316093
   115  C    0.321068
   116  C   -0.023928
   117  C    0.025953
   118  C   -0.030476
   119  C    0.029856
   120  C   -0.056557
   122  C   -0.079042
   123  C   -0.056664
   125  C   -0.079141
   126  C    0.119166
   129  C    0.118548
   132  C   -0.066397
   133  C   -0.068017
   134  C   -0.003069
   135  C    0.016589
   136  C    0.016007
   137  C   -0.000528
   138  C    0.014551
   139  C    0.018461
 Electronic spatial extent (au):  <R**2>=          79830.2871
 Charge=             -0.0000 electrons
 Dipole moment (field-independent basis, Debye):
    X=              1.0571    Y=              3.6884    Z=              2.5288  Tot=              4.5953
 Quadrupole moment (field-independent basis, Debye-Ang):
   XX=           -429.4149   YY=           -443.3790   ZZ=           -483.8093
   XY=             17.0301   XZ=              2.6355   YZ=            -18.4075
 Traceless Quadrupole moment (field-independent basis, Debye-Ang):
   XX=             22.7862   YY=              8.8220   ZZ=            -31.6082
   XY=             17.0301   XZ=              2.6355   YZ=            -18.4075
 Octapole moment (field-independent basis, Debye-Ang**2):
  XXX=            158.2559  YYY=             13.1398  ZZZ=             62.8805  XYY=             -5.3911
  XXY=             55.5154  XXZ=             35.5742  XZZ=            -29.6402  YZZ=             69.0517
  YYZ=             19.8360  XYZ=            -86.5667
 Hexadecapole moment (field-independent basis, Debye-Ang**3):
 XXXX=         -62935.3936 YYYY=         -26667.2656 ZZZZ=         -17173.6862 XXXY=            417.0975
 XXXZ=            105.0347 YYYX=             76.3827 YYYZ=            -62.7153 ZZZX=            -83.3509
 ZZZY=           -241.6638 XXYY=         -14773.1811 XXZZ=         -13592.1956 YYZZ=          -7232.2121
 XXYZ=           -345.2206 YYXZ=             55.6007 ZZXY=            181.8977
 N-N= 1.368218147179D+04 E-N=-3.550421427771D+04  KE= 3.473420530325D+03
 Leave Link  601 at Tue Aug 27 17:08:02 2024, MaxMem=  2147483648 cpu:              32.5 elap:               5.7
 (Enter /apps/gaussian/g16/l9999.exe)

 Test job not archived.
 1\1\GINC-PMLP-HPCCLSAP02\FOpt\RwB97XD TDA-FC\6-31G(d,p)\C72H79N3O2S1\W
 ILLIAM1\27-Aug-2024\0\\#p opt wb97xd/6-31G** iop(3/107=0103900000,3/10
 8=0103900000) TDA=(singlets, nstates=4, root=2)\\Tuning input file gen
 erated by xtune with parameters: w01039\\0,1\C,-2.1600111665,0.0137245
 923,1.8038267375\C,-1.5416264058,1.9345239051,0.8210096475\C,-2.233614
 6882,-1.3017275483,2.2524475428\C,-3.0880940818,0.9923726269,2.2332652
 573\C,-0.8721749129,2.919783109,0.0963606624\C,-2.6821666698,2.2414763
 117,1.6043040116\C,-3.2731900223,-1.6329427547,3.1239272344\H,-1.49117
 27873,-2.0308066169,1.9545892148\C,-4.1086371509,0.6337218704,3.100251
 1037\C,-1.3635149274,4.2229811732,0.1657981992\H,0.0188150794,2.680380
 3262,-0.4708850004\C,-3.1486904351,3.5456947153,1.6500144507\C,-4.2230
 845507,-0.6947404003,3.5590915288\H,-3.3286339142,-2.6566040846,3.4709
 748648\H,-4.8196409271,1.3858211246,3.4262296844\C,-2.492878451,4.5655
 862846,0.9298495399\H,-0.8357191119,4.9892153274,-0.3873724606\H,-4.01
 80684325,3.7798959712,2.2555853221\C,-0.2451409027,-0.1039691242,0.185
 4693072\C,-0.62786974,-0.7550104581,-1.0368723842\C,0.2881933669,-1.40
 43655066,-1.8202979832\C,1.6546236719,-1.4278759292,-1.4527924763\C,2.
 0586866212,-0.7286804853,-0.2395561571\C,1.117023125,-0.0917962508,0.5
 38014166\H,-0.0199261611,-1.9278796819,-2.7180053077\C,4.1384932072,-1
 .3690174302,1.0236298099\C,4.2295585862,0.4917420092,-0.2418546319\C,3
 .7523238924,-2.540104825,1.6739761681\C,5.4095614971,-0.797854605,1.24
 27117414\C,3.9615834357,1.5358628289,-1.1208131265\C,5.471858653,0.397
 8636382,0.4262859567\C,4.6635651158,-3.1231951596,2.5421096308\H,2.786
 5004199,-2.9898443419,1.4807961076\C,6.3082673194,-1.4131865895,2.1224
 86705\C,4.9590085293,2.4844530134,-1.3281801463\H,3.0158799536,1.59123
 07742,-1.6473031929\C,6.4490661613,1.3672403825,0.2002350772\C,5.94941
 2004,-2.5847992421,2.7877359367\H,4.3694609397,-4.0406220091,3.0423088
 575\H,7.2813397001,-0.9615630001,2.2758442469\C,6.211164256,2.42622485
 21,-0.6831464834\H,4.7502460038,3.2880276182,-2.0239127141\H,7.4004427
 223,1.2875277251,0.7177577629\C,-5.3640502576,-1.0565231254,4.52448910
 72\C,-3.0111276748,6.0097052959,1.0348788741\N,-1.2472393385,0.5874643
 614,0.9300726276\N,3.4317457006,-0.591185799,0.111000652\C,7.309771183
 5,3.4805375429,-0.9142816516\C,6.8940672463,-3.3100271353,3.7624572686
 \S,2.7017043429,-2.5123660791,-2.3369402062\C,4.0164971367,-1.49026785
 12,-3.0196209814\C,3.7325068907,-0.6513130949,-4.0984947565\C,5.289259
 5701,-1.5381038821,-2.457071962\C,4.7410088422,0.1585903373,-4.6122572
 233\H,2.7380242959,-0.6470632087,-4.5302992592\C,6.2917088886,-0.71925
 27932,-2.9758591385\H,5.4770712486,-2.2005270696,-1.6203752061\C,6.018
 662632,0.1279452163,-4.0481181309\H,4.5326895816,0.8119080606,-5.45313
 88064\H,7.2807847295,-0.7379543218,-2.5329550252\H,6.8005690092,0.7646
 462715,-4.4479991528\O,3.3515650337,-3.4667304197,-1.4257653645\O,1.92
 12281439,-3.0179193798,-3.4808885718\H,1.4437526312,0.4441310337,1.422
 8456397\C,7.6290053158,4.1914684567,0.4205839904\H,7.9829119813,3.4868
 53735,1.1782441618\H,8.4084732054,4.9484354526,0.2784661804\H,6.738220
 6983,4.6872466674,0.8179734175\C,6.8903098482,4.5519195722,-1.93737514
 38\H,6.670041912,4.1135456109,-2.9157523309\H,6.0095465381,5.109482071
 ,-1.6037039878\H,7.7035274808,5.2718295501,-2.072969912\C,8.5868874784
 ,2.7908430646,-1.4451621179\H,8.3844341706,2.2786832233,-2.3900470653\
 H,9.3798786893,3.5271188115,-1.6171533158\H,8.970722155,2.0489648868,-
 0.7396295128\C,6.2360925471,-3.3885045884,5.1589969922\H,5.2905067656,
 -3.9370083554,5.1318173881\H,6.8970663671,-3.9005691387,5.8671623735\H
 ,6.0294035508,-2.3863406002,5.5466811055\C,8.2446786622,-2.586705262,3
 .9132491762\H,8.7799774031,-2.5256608536,2.9605771353\H,8.1198681273,-
 1.5719687205,4.3042298103\H,8.8815115795,-3.1349351251,4.6145393478\C,
 7.1723898254,-4.7393226568,3.2435134679\H,6.2545350884,-5.3277200533,3
 .1616343374\H,7.6353880454,-4.7080108884,2.2529072792\H,7.8490956158,-
 5.2698766593,3.9226769738\C,-4.4885209285,6.0667547408,0.584371849\H,-
 5.1299945692,5.426107047,1.1954716868\H,-4.8701664376,7.0895582298,0.6
 658531948\H,-4.5892167911,5.7484518035,-0.4567195087\C,-2.9032505856,6
 .4772372039,2.5054256756\H,-3.2583535762,7.5083290831,2.603021287\H,-3
 .5026618385,5.8545580797,3.1753124785\H,-1.8662782577,6.4384064321,2.8
 509001755\C,-2.2076414985,6.9879792125,0.1589145493\H,-1.1571592857,7.
 0377558901,0.4604837837\H,-2.2514930257,6.7160043706,-0.9003375626\H,-
 2.6237947047,7.9946690724,0.2574925868\C,-6.7210627865,-0.7318239939,3
 .8583070279\H,-7.5459201414,-0.9986454217,4.5269890858\H,-6.8174248013
 ,0.3320221501,3.6244378163\H,-6.8408668536,-1.2905156068,2.9260970948\
 C,-5.2159519319,-0.2284709229,5.8221110789\H,-5.2646579533,0.846474992
 7,5.6272788804\H,-6.0192200714,-0.4750749502,6.5241137872\H,-4.2594736
 445,-0.4370708456,6.3098716498\C,-5.3602491906,-2.5479804734,4.9049783
 369\H,-5.475247994,-3.1923014972,4.0282123796\H,-4.4407932301,-2.83350
 93406,5.4248297017\H,-6.1958031146,-2.7570360145,5.5791970735\N,-2.029
 9607427,-0.7632027676,-1.3530607506\C,-2.7517771677,0.281904254,-1.905
 4730116\C,-2.9038153908,-1.776002862,-1.0210665423\C,-2.2904187279,1.4
 87790181,-2.4247908216\C,-4.1300888428,-0.0419965549,-1.8983010105\C,-
 2.6242294895,-3.0296282077,-0.4749439797\C,-4.2303584012,-1.380910116,
 -1.331701514\C,-3.2403333544,2.3875327852,-2.9140277309\H,-1.231520144
 9,1.7048077671,-2.4692880885\C,-5.0476422166,0.8687521799,-2.393254123
 4\C,-3.6985720109,-3.8872939816,-0.2444140818\H,-1.6043365953,-3.33133
 4492,-0.2722590603\C,-5.2753175929,-2.2543096092,-1.0878158114\C,-4.61
 59115614,2.1114386042,-2.9066730466\H,-2.8816907392,3.3271768603,-3.31
 31675761\H,-6.1036367493,0.6203778186,-2.3851483438\C,-5.0263093616,-3
 .5320423147,-0.538926508\H,-3.4815778356,-4.8639338195,0.1677821196\H,
 -6.2893388249,-1.9549022839,-1.3302958277\C,-5.6620845393,3.0988514149
 ,-3.4480076641\C,-6.2057351196,-4.49182518,-0.3154971718\C,-5.02883900
 61,4.4130460976,-3.9386957021\C,-6.4082732163,2.4492701732,-4.63665897
 73\C,-6.6720588075,3.4377523775,-2.327218292\C,-5.7683395769,-5.823148
 5194,0.32163668\C,-7.2425870331,-3.8296979078,0.6206241975\C,-6.866090
 4405,-4.8014895901,-1.6798592692\H,-4.4931874481,4.9307703361,-3.13746
 54233\H,-4.3342392889,4.2462579565,-4.7675195263\H,-5.8124908001,5.085
 4517099,-4.2991445008\H,-5.7126270919,2.1949875061,-5.4414512267\H,-6.
 927528516,1.5333755239,-4.3411820195\H,-7.1570565677,3.1402281589,-5.0
 371712178\H,-6.1638193383,3.8758258887,-1.4640765206\H,-7.4136742173,4
 .1562770571,-2.6906569918\H,-7.2131324514,2.5523649425,-1.9822057394\H
 ,-5.0689737904,-6.3712626449,-0.3164744403\H,-5.3008025814,-5.67235675
 56,1.2995760746\H,-6.6434361962,-6.4618973364,0.4707945067\H,-7.636928
 4219,-2.8980891494,0.2059304617\H,-8.0899314647,-4.5036685479,0.781301
 4397\H,-6.7984443951,-3.6035467005,1.5935398289\H,-7.2535533363,-3.898
 554449,-2.1598280828\H,-6.1487611533,-5.2634767411,-2.3639643186\H,-7.
 7046109492,-5.492270599,-1.5454593985\\Version=ES64L-G16RevC.01\State=
 1-A\HF=-3503.7696003\RMSD=3.847e-09\RMSF=1.324e-06\Dipole=-5.5415703,2
 .7589854,1.0982081\PG=C01 [X(C72H79N3O2S1)]\\@


 WHAT, THEN, IS TIME?  IF NO ONE ASKS ME, I KNOW WHAT IT IS.
 IF I WISH TO EXPLAIN WHAT IT IS TO HIM WHO ASKS ME, I DO NOT KNOW.
                                   -- ST. AUGUSTINE (FIFTH CENTURY)
 Job cpu time:       5 days 15 hours 41 minutes 52.1 seconds.
 Elapsed time:       0 days 20 hours 31 minutes 36.8 seconds.
 File lengths (MBytes):  RWF=  10318 Int=      0 D2E=      0 Chk=    563 Scr=      1
 Normal termination of Gaussian 16 at Tue Aug 27 17:08:07 2024.
