 Entering Gaussian System, Link 0=g16
 Initial command:
 /apps/gaussian/g16/l1.exe "/local/Gau-1237321.inp" -scrdir="/local/"
 Entering Link 1 = /apps/gaussian/g16/l1.exe PID=   1237322.
  
 Copyright (c) 1988-2019, Gaussian, Inc.  All Rights Reserved.
  
 This is part of the Gaussian(R) 16 program.  It is based on
 the Gaussian(R) 09 system (copyright 2009, Gaussian, Inc.),
 the Gaussian(R) 03 system (copyright 2003, Gaussian, Inc.),
 the Gaussian(R) 98 system (copyright 1998, Gaussian, Inc.),
 the Gaussian(R) 94 system (copyright 1995, Gaussian, Inc.),
 the Gaussian 92(TM) system (copyright 1992, Gaussian, Inc.),
 the Gaussian 90(TM) system (copyright 1990, Gaussian, Inc.),
 the Gaussian 88(TM) system (copyright 1988, Gaussian, Inc.),
 the Gaussian 86(TM) system (copyright 1986, Carnegie Mellon
 University), and the Gaussian 82(TM) system (copyright 1983,
 Carnegie Mellon University). Gaussian is a federally registered
 trademark of Gaussian, Inc.
  
 This software contains proprietary and confidential information,
 including trade secrets, belonging to Gaussian, Inc.
  
 This software is provided under written license and may be
 used, copied, transmitted, or stored only in accord with that
 written license.
  
 The following legend is applicable only to US Government
 contracts under FAR:
  
                    RESTRICTED RIGHTS LEGEND
  
 Use, reproduction and disclosure by the US Government is
 subject to restrictions as set forth in subparagraphs (a)
 and (c) of the Commercial Computer Software - Restricted
 Rights clause in FAR 52.227-19.
  
 Gaussian, Inc.
 340 Quinnipiac St., Bldg. 40, Wallingford CT 06492
  
  
 ---------------------------------------------------------------
 Warning -- This program may not be used in any manner that
 competes with the business of Gaussian, Inc. or will provide
 assistance to any competitor of Gaussian, Inc.  The licensee
 of this program is prohibited from giving any competitor of
 Gaussian, Inc. access to this program.  By using this program,
 the user acknowledges that Gaussian, Inc. is engaged in the
 business of creating and licensing software in the field of
 computational chemistry and represents and warrants to the
 licensee that it is not a competitor of Gaussian, Inc. and that
 it will not use this program in any manner prohibited above.
 ---------------------------------------------------------------
  

 Cite this work as:
 Gaussian 16, Revision C.01,
 M. J. Frisch, G. W. Trucks, H. B. Schlegel, G. E. Scuseria, 
 M. A. Robb, J. R. Cheeseman, G. Scalmani, V. Barone, 
 G. A. Petersson, H. Nakatsuji, X. Li, M. Caricato, A. V. Marenich, 
 J. Bloino, B. G. Janesko, R. Gomperts, B. Mennucci, H. P. Hratchian, 
 J. V. Ortiz, A. F. Izmaylov, J. L. Sonnenberg, D. Williams-Young, 
 F. Ding, F. Lipparini, F. Egidi, J. Goings, B. Peng, A. Petrone, 
 T. Henderson, D. Ranasinghe, V. G. Zakrzewski, J. Gao, N. Rega, 
 G. Zheng, W. Liang, M. Hada, M. Ehara, K. Toyota, R. Fukuda, 
 J. Hasegawa, M. Ishida, T. Nakajima, Y. Honda, O. Kitao, H. Nakai, 
 T. Vreven, K. Throssell, J. A. Montgomery, Jr., J. E. Peralta, 
 F. Ogliaro, M. J. Bearpark, J. J. Heyd, E. N. Brothers, K. N. Kudin, 
 V. N. Staroverov, T. A. Keith, R. Kobayashi, J. Normand, 
 K. Raghavachari, A. P. Rendell, J. C. Burant, S. S. Iyengar, 
 J. Tomasi, M. Cossi, J. M. Millam, M. Klene, C. Adamo, R. Cammi, 
 J. W. Ochterski, R. L. Martin, K. Morokuma, O. Farkas, 
 J. B. Foresman, and D. J. Fox, Gaussian, Inc., Wallingford CT, 2019.
 
 ******************************************
 Gaussian 16:  ES64L-G16RevC.01  3-Jul-2019
                21-Sep-2024 
 ******************************************
 %chk=YZ-IX-137.chk
 %nprocshared=16
 Will use up to   16 processors via shared memory.
 %mem=16GB
 ----------------------------------------------------------------------
 #p opt=Restart wb97xd/6-31G** iop(3/107=0105700000,3/108=0105700000) T
 DA=(singlets, nstates=4, root=2)
 ----------------------------------------------------------------------
 1/18=20,19=15,26=3,35=1/3(2);
 2/9=110/2;
 99//99;
 2/9=110/2;
 3/5=1,6=6,7=101,11=9,25=1,30=1,71=1,74=-58,107=105700000,108=105700000/1,2,3,8;
 4/5=5,16=3,69=1/1;
 5/5=2,38=5/2;
 8/6=1,10=2,107=2,108=4/1;
 9/8=2,15=2,41=4,42=1,48=1,49=4/14;
 10/5=4,28=2/2;
 7/12=6,13=5,14=2/1,2,3,16;
 1/18=20,19=15,26=3/3(-8);
 2/9=110/2;
 6/7=2,8=2,9=2,10=2/1;
 99/9=10/99;
 Leave Link    1 at Sat Sep 21 11:51:11 2024, MaxMem=  2147483648 cpu:               0.8 elap:               0.1
 (Enter /apps/gaussian/g16/l103.exe)

 GradGradGradGradGradGradGradGradGradGradGradGradGradGradGradGradGradGrad
 Berny optimization.
 Restoring state from the checkpoint file "YZ-IX-137.chk".
 ONIOM results not found on unit 2.
 Title:  Tuning input file generated by xtune with parameters: w01057
 Route:  #p opt wb97xd/6-31G** iop(3/107=0105700000,3/108=0105700000) TDA=(single
 ts, nstates=4, root=2)
 FncErr=1.00D-07 GrdErr=1.00D-06 EigMax=2.50D+02 EigMin=1.00D-04
 Using GEDIIS/GDIIS optimizer.
 FormGI is forming the generalized inverse of G from B-inverse, IUseBI=4.
 Internal  Forces:  Max     0.000156227 RMS     0.000011568
 Search for a local minimum.
 Step number  64 out of a maximum of  930
 All quantities printed in internal units (Hartrees-Bohrs-Radians)
 RMS Force = .11568D-04 SwitMx=.10000D-02 MixMth= 2
 Mixed Optimization -- En-DIIS/RFO-DIIS
 Swapping is turned off.
 Update second derivatives using D2CorX and points   16   17   18   19   20
                                                     21   22   23   24   25
                                                     26   27   28   29   30
                                                     31   32   33   34   35
                                                     36   37   38   39   40
                                                     41   42   43   44   45
                                                     46   47   48   49   50
                                                     51   52   53   54   55
                                                     56   57   58   59   60
                                                     61   62   63   64
 DE= -5.79D-08 DEPred=-2.59D-07 R= 2.24D-01
 Trust test= 2.24D-01 RLast= 2.25D-03 DXMaxT set to 5.00D-02
 ITU=  0  0 -1  1  1 -1 -1  1 -1 -1  1  0 -1  1  0 -1  1 -1 -1  1
 ITU= -1 -1  1  1 -1 -1  1  1 -1 -1  1  0 -1  1 -1 -1  1  1 -1 -1
 ITU=  1  0  1  1 -1  0  1  1  1  1  1  0  1  1  1  1  1  0 -1 -1
 ITU=  1 -1  1  0
     Eigenvalues ---    0.00143   0.00191   0.00220   0.00227   0.00228
     Eigenvalues ---    0.00229   0.00230   0.00230   0.00232   0.00233
     Eigenvalues ---    0.00236   0.00238   0.00239   0.00243   0.00250
     Eigenvalues ---    0.00257   0.00270   0.00276   0.00370   0.00404
     Eigenvalues ---    0.00423   0.00459   0.00525   0.00559   0.00625
     Eigenvalues ---    0.00635   0.00692   0.00884   0.00981   0.01244
     Eigenvalues ---    0.01300   0.01365   0.01375   0.01406   0.01433
     Eigenvalues ---    0.01462   0.01485   0.01515   0.01590   0.01632
     Eigenvalues ---    0.01662   0.01733   0.01742   0.01783   0.01802
     Eigenvalues ---    0.01847   0.01889   0.01903   0.01914   0.01942
     Eigenvalues ---    0.01953   0.01955   0.01974   0.01999   0.02007
     Eigenvalues ---    0.02029   0.02036   0.02042   0.02047   0.02060
     Eigenvalues ---    0.02068   0.02078   0.02091   0.02094   0.02099
     Eigenvalues ---    0.02106   0.02119   0.02122   0.02123   0.02132
     Eigenvalues ---    0.02135   0.02144   0.02147   0.02148   0.02154
     Eigenvalues ---    0.02157   0.02159   0.02162   0.02164   0.02167
     Eigenvalues ---    0.02169   0.02172   0.02178   0.02183   0.02195
     Eigenvalues ---    0.02202   0.02226   0.02243   0.02255   0.02289
     Eigenvalues ---    0.02303   0.02355   0.02389   0.02476   0.02627
     Eigenvalues ---    0.02693   0.02926   0.03175   0.03258   0.03589
     Eigenvalues ---    0.03820   0.04605   0.04891   0.04938   0.04983
     Eigenvalues ---    0.04989   0.05009   0.05074   0.05111   0.05130
     Eigenvalues ---    0.05147   0.05178   0.05206   0.05211   0.05257
     Eigenvalues ---    0.05261   0.05267   0.05268   0.05274   0.05282
     Eigenvalues ---    0.05317   0.05326   0.05336   0.05348   0.05355
     Eigenvalues ---    0.05368   0.05374   0.05378   0.05379   0.05383
     Eigenvalues ---    0.05395   0.05399   0.05462   0.05470   0.05480
     Eigenvalues ---    0.05483   0.05485   0.05486   0.05490   0.05494
     Eigenvalues ---    0.05509   0.05513   0.05520   0.05525   0.05529
     Eigenvalues ---    0.05562   0.05565   0.05573   0.05583   0.05595
     Eigenvalues ---    0.05609   0.05632   0.05669   0.05719   0.05917
     Eigenvalues ---    0.06300   0.07850   0.10786   0.10989   0.13542
     Eigenvalues ---    0.13880   0.14278   0.14555   0.14682   0.14786
     Eigenvalues ---    0.14856   0.14913   0.15055   0.15088   0.15334
     Eigenvalues ---    0.15466   0.15572   0.15601   0.15650   0.15683
     Eigenvalues ---    0.15706   0.15820   0.15853   0.15907   0.15910
     Eigenvalues ---    0.15916   0.15934   0.15948   0.15957   0.15973
     Eigenvalues ---    0.15977   0.15987   0.15988   0.15993   0.15994
     Eigenvalues ---    0.15995   0.15997   0.15998   0.15999   0.15999
     Eigenvalues ---    0.15999   0.15999   0.16000   0.16000   0.16000
     Eigenvalues ---    0.16000   0.16000   0.16000   0.16000   0.16000
     Eigenvalues ---    0.16000   0.16000   0.16000   0.16000   0.16000
     Eigenvalues ---    0.16000   0.16000   0.16000   0.16000   0.16000
     Eigenvalues ---    0.16000   0.16000   0.16000   0.16001   0.16001
     Eigenvalues ---    0.16001   0.16003   0.16003   0.16005   0.16005
     Eigenvalues ---    0.16010   0.16010   0.16012   0.16016   0.16020
     Eigenvalues ---    0.16025   0.16030   0.16032   0.16036   0.16044
     Eigenvalues ---    0.16047   0.16069   0.16086   0.16118   0.16136
     Eigenvalues ---    0.16182   0.16212   0.16230   0.16286   0.16344
     Eigenvalues ---    0.16374   0.16439   0.16613   0.16726   0.17026
     Eigenvalues ---    0.17332   0.17531   0.19072   0.19514   0.21856
     Eigenvalues ---    0.22016   0.22028   0.22095   0.22387   0.22430
     Eigenvalues ---    0.22466   0.22475   0.22647   0.22940   0.23224
     Eigenvalues ---    0.23437   0.23507   0.23524   0.23543   0.23557
     Eigenvalues ---    0.23599   0.23688   0.23876   0.23956   0.24250
     Eigenvalues ---    0.24276   0.24584   0.24603   0.24697   0.24745
     Eigenvalues ---    0.24796   0.24842   0.25024   0.25092   0.25416
     Eigenvalues ---    0.25452   0.25726   0.25884   0.26204   0.26287
     Eigenvalues ---    0.26857   0.27226   0.27353   0.27811   0.27907
     Eigenvalues ---    0.27930   0.28006   0.28030   0.28041   0.28056
     Eigenvalues ---    0.28058   0.28074   0.28100   0.28164   0.28239
     Eigenvalues ---    0.28378   0.28474   0.28562   0.28564   0.28596
     Eigenvalues ---    0.28613   0.28678   0.28721   0.28743   0.29020
     Eigenvalues ---    0.29036   0.29294   0.30163   0.30822   0.31540
     Eigenvalues ---    0.32621   0.33014   0.34085   0.34179   0.34188
     Eigenvalues ---    0.34194   0.34200   0.34201   0.34204   0.34207
     Eigenvalues ---    0.34208   0.34209   0.34212   0.34218   0.34233
     Eigenvalues ---    0.34280   0.34292   0.34296   0.34304   0.34307
     Eigenvalues ---    0.34310   0.34314   0.34318   0.34322   0.34324
     Eigenvalues ---    0.34325   0.34329   0.34334   0.34335   0.34338
     Eigenvalues ---    0.34341   0.34344   0.34346   0.34353   0.34354
     Eigenvalues ---    0.34356   0.34357   0.34361   0.34365   0.34384
     Eigenvalues ---    0.34386   0.34396   0.34400   0.34402   0.34417
     Eigenvalues ---    0.34422   0.34423   0.34431   0.34438   0.34451
     Eigenvalues ---    0.34459   0.34479   0.34490   0.34524   0.34594
     Eigenvalues ---    0.34626   0.35119   0.35246   0.35338   0.35351
     Eigenvalues ---    0.35365   0.35376   0.35398   0.35437   0.35447
     Eigenvalues ---    0.35475   0.35486   0.35519   0.35541   0.35543
     Eigenvalues ---    0.35560   0.35580   0.35621   0.35632   0.35651
     Eigenvalues ---    0.35689   0.35728   0.35737   0.35783   0.35876
     Eigenvalues ---    0.35928   0.36162   0.36234   0.36801   0.37145
     Eigenvalues ---    0.37390   0.38042   0.39049   0.39613   0.39787
     Eigenvalues ---    0.40356   0.40692   0.41481   0.42075   0.42280
     Eigenvalues ---    0.42297   0.42361   0.42432   0.42492   0.42697
     Eigenvalues ---    0.42816   0.42998   0.43213   0.43239   0.43360
     Eigenvalues ---    0.43749   0.43916   0.44170   0.44284   0.44518
     Eigenvalues ---    0.44532   0.44688   0.44899   0.44950   0.45210
     Eigenvalues ---    0.45478   0.45646   0.45707   0.45922   0.45939
     Eigenvalues ---    0.46159   0.46288   0.46357   0.46536   0.46547
     Eigenvalues ---    0.46612   0.46645   0.46698   0.46736   0.46835
     Eigenvalues ---    0.46848   0.46916   0.46998   0.47124   0.47199
     Eigenvalues ---    0.47529   0.47566   0.47957   0.48815   0.49045
     Eigenvalues ---    0.52531   0.62589   0.73138   0.89377   0.89931
 En-DIIS/RFO-DIIS/Sim-DIIS IScMMF=       -3 using points:    64   63   62   61   60   59   58   57   56   55
 RFO step:  Lambda=-1.94022355D-06.
 NNeg= 0 NGDIIS=10 SimSw=  2.50D-03 Rises=F DC= -5.79D-08 SmlDif=  1.00D-05
 NRisDI= 0 DoIntr=F SqrtH=F CThrHd= 10.0 CDAdj=  3.0
 RMS Error=  0.6828257409D-03 NUsed=10 OKEnD=F EnDIS=F
 InvSVX:  RCond= 9.70D-08 Info=           0 Equed=N FErr=  2.48D-12 BErr=  1.10D-16
 DIIS inversion failure, remove point  10.
 InvSVX:  RCond= 1.47D-07 Info=           0 Equed=N FErr=  1.64D-12 BErr=  6.33D-17
 RFO-DIIS uses    9 points instead of   10
 DidBck=F Rises=F RFO-DIIS coefs:    0.87267    1.14521    0.02075   -0.98115   -0.12432
                  RFO-DIIS coefs:    0.05149   -0.18972   -0.27527    0.48035    0.00000
 Iteration  1 RMS(Cart)=  0.00450621 RMS(Int)=  0.00000158
 Iteration  2 RMS(Cart)=  0.00000473 RMS(Int)=  0.00000020
 Iteration  3 RMS(Cart)=  0.00000000 RMS(Int)=  0.00000020
 ITry= 1 IFail=0 DXMaxC= 3.81D-02 DCOld= 1.00D+10 DXMaxT= 5.00D-02 DXLimC= 3.00D+00 Rises=F
 Variable       Old X    -DE/DX   Delta X   Delta X   Delta X     New X
                                 (Linear)    (Quad)   (Total)
    R1        2.63828  -0.00000   0.00002  -0.00002   0.00000   2.63828
    R2        2.68590  -0.00000  -0.00005   0.00000  -0.00004   2.68586
    R3        2.59545   0.00000   0.00003   0.00002   0.00005   2.59551
    R4        2.63168  -0.00002   0.00001  -0.00003  -0.00002   2.63166
    R5        2.67193   0.00000   0.00005  -0.00001   0.00004   2.67197
    R6        2.61637  -0.00002  -0.00005   0.00000  -0.00005   2.61632
    R7        2.63461   0.00000  -0.00002   0.00001  -0.00001   2.63460
    R8        2.04111  -0.00000  -0.00000  -0.00003  -0.00004   2.04107
    R9        2.76082  -0.00000  -0.00006   0.00002  -0.00004   2.76078
   R10        2.60196   0.00000   0.00001   0.00001   0.00002   2.60198
   R11        2.63862  -0.00000   0.00001  -0.00000   0.00001   2.63862
   R12        2.04361  -0.00000  -0.00001   0.00000  -0.00001   2.04361
   R13        2.60704  -0.00000  -0.00004   0.00002  -0.00002   2.60703
   R14        2.64960   0.00000   0.00004  -0.00000   0.00003   2.64963
   R15        2.04261   0.00000  -0.00000  -0.00000  -0.00000   2.04261
   R16        2.68249   0.00000  -0.00005   0.00002  -0.00004   2.68246
   R17        2.04889   0.00000   0.00001  -0.00000   0.00001   2.04890
   R18        2.64785   0.00001  -0.00004   0.00002  -0.00002   2.64782
   R19        2.04332  -0.00000  -0.00000   0.00001   0.00001   2.04333
   R20        2.68031   0.00000  -0.00001   0.00001  -0.00000   2.68031
   R21        2.04947   0.00000   0.00001  -0.00001   0.00000   2.04947
   R22        2.89932  -0.00000  -0.00003   0.00006   0.00003   2.89935
   R23        2.90179   0.00001  -0.00004   0.00002  -0.00002   2.90177
   R24        2.69905   0.00000  -0.00018   0.00012  -0.00005   2.69899
   R25        2.72957  -0.00002  -0.00014   0.00006  -0.00008   2.72949
   R26        2.72716   0.00001  -0.00023   0.00012  -0.00010   2.72706
   R27        2.58740   0.00005  -0.00001   0.00003   0.00002   2.58742
   R28        2.69708   0.00002   0.00015  -0.00003   0.00012   2.69720
   R29        2.69986   0.00004  -0.00001   0.00003   0.00003   2.69989
   R30        2.04788   0.00000   0.00000  -0.00001  -0.00001   2.04787
   R31        2.68630  -0.00000   0.00003  -0.00002   0.00001   2.68631
   R32        3.29554   0.00004  -0.00012   0.00006  -0.00006   3.29548
   R33        2.58671  -0.00001  -0.00006   0.00003  -0.00004   2.58667
   R34        2.04917  -0.00000  -0.00001   0.00000  -0.00000   2.04917
   R35        2.70449  -0.00001   0.00008  -0.00004   0.00004   2.70453
   R36        2.92216   0.00000  -0.00003   0.00000  -0.00002   2.92214
   R37        2.92466   0.00000   0.00004  -0.00003   0.00001   2.92468
   R38        2.90820  -0.00000  -0.00001   0.00002   0.00002   2.90821
   R39        2.90867   0.00000  -0.00000   0.00000   0.00000   2.90868
   R40        2.92247   0.00000  -0.00001   0.00000  -0.00001   2.92247
   R41        2.92171   0.00000   0.00003  -0.00001   0.00002   2.92172
   R42        2.63901  -0.00001   0.00001  -0.00000   0.00000   2.63901
   R43        2.63857   0.00000   0.00000  -0.00000   0.00000   2.63857
   R44        3.41446  -0.00000  -0.00009   0.00004  -0.00006   3.41440
   R45        2.63555  -0.00000  -0.00002   0.00001  -0.00001   2.63554
   R46        2.04861  -0.00000  -0.00000  -0.00001  -0.00001   2.04860
   R47        2.63377  -0.00000  -0.00001   0.00000  -0.00001   2.63377
   R48        2.04851   0.00000   0.00000  -0.00001  -0.00000   2.04851
   R49        2.63864  -0.00000   0.00002  -0.00002  -0.00000   2.63864
   R50        2.05060   0.00000   0.00000   0.00000   0.00000   2.05060
   R51        2.63976  -0.00000  -0.00001   0.00000  -0.00001   2.63975
   R52        2.05043  -0.00000   0.00000  -0.00000  -0.00000   2.05043
   R53        2.05056  -0.00000  -0.00000   0.00001   0.00000   2.05056
   R54        2.77552  -0.00000   0.00004  -0.00002   0.00002   2.77554
   R55        2.77601   0.00000   0.00002   0.00001   0.00002   2.77603
   R56        2.06797   0.00000  -0.00000   0.00000  -0.00000   2.06797
   R57        2.06580   0.00000  -0.00000   0.00000   0.00000   2.06581
   R58        2.06598   0.00000  -0.00000   0.00001   0.00000   2.06598
   R59        2.06846   0.00000  -0.00000   0.00000   0.00000   2.06847
   R60        2.06670   0.00000  -0.00001  -0.00000  -0.00001   2.06669
   R61        2.06660   0.00000   0.00000   0.00000   0.00000   2.06660
   R62        2.06788   0.00000  -0.00000  -0.00000  -0.00000   2.06788
   R63        2.06612  -0.00000   0.00000  -0.00001  -0.00001   2.06611
   R64        2.06652   0.00000  -0.00001   0.00001   0.00000   2.06652
   R65        2.06773   0.00000   0.00000   0.00000   0.00000   2.06773
   R66        2.06768  -0.00000  -0.00001   0.00001   0.00000   2.06769
   R67        2.06659   0.00000  -0.00001   0.00000  -0.00000   2.06659
   R68        2.06611  -0.00000  -0.00000  -0.00000  -0.00001   2.06611
   R69        2.06832   0.00000  -0.00000   0.00000  -0.00000   2.06832
   R70        2.06559   0.00000   0.00000  -0.00000   0.00000   2.06559
   R71        2.06839  -0.00000  -0.00000   0.00000   0.00000   2.06839
   R72        2.06589  -0.00000  -0.00001   0.00001  -0.00000   2.06589
   R73        2.06646   0.00000   0.00000   0.00000   0.00000   2.06646
   R74        2.63496  -0.00001   0.00003  -0.00004  -0.00000   2.63495
   R75        2.63035  -0.00000   0.00004  -0.00003   0.00001   2.63036
   R76        2.63511   0.00000  -0.00003   0.00003  -0.00000   2.63510
   R77        2.66616  -0.00001  -0.00004   0.00001  -0.00003   2.66613
   R78        2.63211  -0.00000  -0.00000  -0.00000  -0.00001   2.63211
   R79        2.67088   0.00001   0.00003  -0.00000   0.00003   2.67091
   R80        2.62414  -0.00000   0.00001  -0.00000   0.00001   2.62415
   R81        2.04797   0.00001   0.00001   0.00001   0.00003   2.04799
   R82        2.73849   0.00001  -0.00001  -0.00000  -0.00001   2.73848
   R83        2.64324   0.00000  -0.00001  -0.00000  -0.00001   2.64323
   R84        2.63207   0.00000  -0.00002   0.00000  -0.00002   2.63206
   R85        2.04855  -0.00000   0.00000  -0.00000   0.00000   2.04855
   R86        2.63673  -0.00000  -0.00001  -0.00001  -0.00002   2.63671
   R87        2.67255   0.00000  -0.00001   0.00003   0.00001   2.67256
   R88        2.05102   0.00000   0.00001  -0.00001  -0.00001   2.05102
   R89        2.63592   0.00001  -0.00001   0.00001   0.00000   2.63593
   R90        2.04760  -0.00000   0.00001  -0.00001   0.00000   2.04761
   R91        2.66667  -0.00000  -0.00002   0.00003   0.00000   2.66668
   R92        2.04685   0.00000   0.00002  -0.00002   0.00000   2.04685
   R93        2.64482   0.00000  -0.00002   0.00001  -0.00001   2.64481
   R94        2.05183  -0.00000  -0.00000   0.00000   0.00000   2.05183
   R95        2.90755   0.00000  -0.00002   0.00003   0.00001   2.90756
   R96        2.91080  -0.00000  -0.00002   0.00002  -0.00000   2.91080
   R97        2.92027   0.00000   0.00002  -0.00000   0.00001   2.92028
   R98        2.92071  -0.00000  -0.00000  -0.00001  -0.00001   2.92069
   R99        2.90890   0.00000  -0.00000   0.00001   0.00000   2.90890
   R100       2.92041   0.00000  -0.00000   0.00001   0.00000   2.92041
   R101       2.92094   0.00000   0.00000  -0.00001  -0.00001   2.92093
   R102       2.90938  -0.00000  -0.00001   0.00001  -0.00000   2.90938
   R103       2.06633  -0.00000  -0.00000  -0.00001  -0.00001   2.06633
   R104       2.07001  -0.00000  -0.00000   0.00000  -0.00000   2.07001
   R105       2.06707   0.00000   0.00000  -0.00000  -0.00000   2.06707
   R106       2.06531   0.00000  -0.00001   0.00000  -0.00001   2.06530
   R107       2.06805  -0.00000   0.00001  -0.00001  -0.00000   2.06805
   R108       2.07022   0.00000   0.00000  -0.00000   0.00000   2.07022
   R109       2.06858  -0.00000  -0.00000  -0.00000  -0.00001   2.06858
   R110       2.06800   0.00000  -0.00000  -0.00000  -0.00000   2.06800
   R111       2.06788  -0.00000   0.00000  -0.00000   0.00000   2.06788
   R112       2.06985  -0.00000   0.00000  -0.00000  -0.00000   2.06985
   R113       2.06667   0.00000   0.00001  -0.00001   0.00000   2.06667
   R114       2.06806   0.00000   0.00000   0.00001   0.00001   2.06807
   R115       2.06637  -0.00000  -0.00001   0.00000  -0.00000   2.06637
   R116       2.07002   0.00000  -0.00000   0.00000  -0.00000   2.07001
   R117       2.06692   0.00000   0.00000  -0.00000  -0.00000   2.06692
   R118       2.06854   0.00000   0.00000  -0.00000  -0.00000   2.06854
   R119       2.06761   0.00000   0.00000  -0.00000  -0.00000   2.06761
   R120       2.06781   0.00000  -0.00000   0.00000   0.00000   2.06781
   R121       2.62676   0.00001   0.00004  -0.00006  -0.00002   2.62673
   R122       2.63075   0.00001  -0.00006   0.00005  -0.00001   2.63074
   R123       2.63333  -0.00002  -0.00000  -0.00001  -0.00001   2.63332
   R124       2.67613   0.00001   0.00001  -0.00001   0.00000   2.67613
   R125       2.62982   0.00000   0.00002  -0.00001   0.00001   2.62983
   R126       2.66947  -0.00000  -0.00001   0.00000  -0.00000   2.66947
   R127       2.63277  -0.00000  -0.00002   0.00001  -0.00000   2.63276
   R128       2.04678  -0.00003  -0.00002  -0.00001  -0.00003   2.04675
   R129       2.74257  -0.00001   0.00001  -0.00001   0.00001   2.74257
   R130       2.63020   0.00000   0.00001  -0.00001  -0.00000   2.63020
   R131       2.63516  -0.00000  -0.00003   0.00001  -0.00002   2.63514
   R132       2.04700  -0.00000   0.00002  -0.00000   0.00002   2.04702
   R133       2.63235   0.00000   0.00000   0.00000   0.00000   2.63235
   R134       2.66072  -0.00001   0.00001  -0.00000   0.00001   2.66073
   R135       2.04662  -0.00000   0.00001  -0.00000   0.00000   2.04662
   R136       2.64999  -0.00000  -0.00001   0.00002   0.00001   2.65000
   R137       2.05126  -0.00000   0.00000  -0.00000   0.00000   2.05126
   R138       2.65945   0.00000   0.00000   0.00002   0.00002   2.65947
   R139       2.04668   0.00000   0.00001  -0.00002  -0.00001   2.04667
   R140       2.64952  -0.00000  -0.00002   0.00001  -0.00001   2.64951
   R141       2.05148  -0.00000   0.00001  -0.00000   0.00000   2.05148
   R142       2.90884  -0.00000   0.00000   0.00001   0.00001   2.90885
   R143       2.90899  -0.00000  -0.00002   0.00002   0.00000   2.90900
   R144       2.92051  -0.00000  -0.00001   0.00001  -0.00000   2.92051
   R145       2.92148   0.00000  -0.00001   0.00000  -0.00000   2.92148
   R146       2.90928  -0.00000   0.00001  -0.00000   0.00001   2.90929
   R147       2.90926  -0.00000  -0.00001   0.00003   0.00002   2.90928
   R148       2.92094   0.00000   0.00000  -0.00000  -0.00000   2.92094
   R149       2.92047   0.00000   0.00001  -0.00003  -0.00001   2.92046
   R150       2.06959  -0.00000   0.00000  -0.00000  -0.00000   2.06959
   R151       2.06609   0.00000   0.00001  -0.00001   0.00000   2.06609
   R152       2.06671  -0.00000   0.00000   0.00000   0.00000   2.06671
   R153       2.06708  -0.00000  -0.00000   0.00000  -0.00000   2.06708
   R154       2.06662   0.00000  -0.00001   0.00000  -0.00000   2.06662
   R155       2.07000  -0.00000  -0.00000   0.00000  -0.00000   2.07000
   R156       2.06880   0.00000  -0.00001   0.00001  -0.00000   2.06880
   R157       2.06775   0.00000   0.00001  -0.00001  -0.00000   2.06774
   R158       2.06758   0.00000  -0.00001   0.00001  -0.00000   2.06758
   R159       2.06785  -0.00000   0.00000  -0.00000  -0.00000   2.06785
   R160       2.06870  -0.00000  -0.00002   0.00001  -0.00001   2.06869
   R161       2.06769  -0.00000   0.00000  -0.00000   0.00000   2.06770
   R162       2.06645  -0.00000   0.00001   0.00000   0.00001   2.06646
   R163       2.06990  -0.00000   0.00001  -0.00000   0.00001   2.06990
   R164       2.06719  -0.00000   0.00000  -0.00000  -0.00000   2.06719
   R165       2.06642  -0.00000  -0.00001   0.00001  -0.00001   2.06641
   R166       2.06708   0.00000  -0.00000   0.00000   0.00000   2.06708
   R167       2.06983  -0.00000  -0.00001   0.00000  -0.00001   2.06982
    A1        2.12184   0.00000   0.00000  -0.00001  -0.00001   2.12183
    A2        2.24951  -0.00000  -0.00002   0.00000  -0.00002   2.24950
    A3        1.91152   0.00000   0.00003   0.00001   0.00004   1.91157
    A4        2.12728   0.00000  -0.00010   0.00006  -0.00003   2.12725
    A5        2.23963  -0.00001   0.00009  -0.00006   0.00003   2.23966
    A6        1.91623   0.00001   0.00001  -0.00000   0.00001   1.91624
    A7        2.05162   0.00000  -0.00001   0.00003   0.00002   2.05164
    A8        2.11041  -0.00000  -0.00008   0.00001  -0.00006   2.11034
    A9        2.12068  -0.00000   0.00010  -0.00005   0.00006   2.12074
   A10        1.85285  -0.00000  -0.00001  -0.00002  -0.00002   1.85283
   A11        2.08657   0.00000   0.00001  -0.00001   0.00001   2.08657
   A12        2.34345   0.00000   0.00000   0.00002   0.00002   2.34347
   A13        2.04921   0.00000   0.00004  -0.00001   0.00003   2.04924
   A14        2.11469  -0.00001   0.00006  -0.00008  -0.00002   2.11467
   A15        2.11910   0.00001  -0.00010   0.00009  -0.00001   2.11909
   A16        1.84628  -0.00000   0.00000   0.00001   0.00001   1.84630
   A17        2.08549   0.00000   0.00005  -0.00005  -0.00000   2.08549
   A18        2.35135   0.00000  -0.00005   0.00004  -0.00001   2.35134
   A19        2.13714  -0.00000  -0.00001  -0.00000  -0.00001   2.13713
   A20        2.05195  -0.00000   0.00010  -0.00009   0.00001   2.05197
   A21        2.09395   0.00000  -0.00009   0.00009   0.00000   2.09395
   A22        2.09852  -0.00000  -0.00001   0.00003   0.00001   2.09854
   A23        2.08941   0.00000  -0.00003   0.00002  -0.00001   2.08940
   A24        2.09516  -0.00000   0.00005  -0.00005  -0.00000   2.09515
   A25        2.13659  -0.00000   0.00002  -0.00003  -0.00001   2.13658
   A26        2.05013  -0.00000   0.00003   0.00003   0.00006   2.05019
   A27        2.09646   0.00000  -0.00005   0.00000  -0.00004   2.09641
   A28        2.09788  -0.00000   0.00001  -0.00000   0.00001   2.09789
   A29        2.09049   0.00000   0.00002   0.00000   0.00003   2.09052
   A30        2.09482  -0.00000  -0.00004  -0.00000  -0.00004   2.09478
   A31        2.07066   0.00000   0.00001  -0.00003  -0.00001   2.07065
   A32        2.13822   0.00000  -0.00007   0.00012   0.00005   2.13827
   A33        2.07387  -0.00001   0.00006  -0.00009  -0.00003   2.07384
   A34        2.06946  -0.00000  -0.00003   0.00003  -0.00000   2.06946
   A35        2.13669   0.00001   0.00000  -0.00002  -0.00001   2.13667
   A36        2.07704  -0.00001   0.00003  -0.00001   0.00002   2.07706
   A37        2.06028  -0.00001   0.00003   0.00003   0.00006   2.06034
   A38        2.02921   0.00004   0.00034  -0.00001   0.00033   2.02954
   A39        2.04352  -0.00003   0.00018  -0.00003   0.00015   2.04367
   A40        2.12135  -0.00000   0.00006  -0.00005   0.00001   2.12136
   A41        2.03613  -0.00005  -0.00009   0.00000  -0.00008   2.03604
   A42        2.12555   0.00005   0.00004   0.00005   0.00009   2.12564
   A43        2.08329   0.00000  -0.00002  -0.00001  -0.00003   2.08326
   A44        2.10448  -0.00000   0.00001  -0.00001  -0.00000   2.10447
   A45        2.09524  -0.00000  -0.00001   0.00003   0.00002   2.09526
   A46        2.09751  -0.00003  -0.00008   0.00008   0.00000   2.09751
   A47        2.07306   0.00011   0.00023   0.00005   0.00029   2.07335
   A48        2.08608  -0.00007   0.00015  -0.00010   0.00004   2.08612
   A49        2.09471   0.00002   0.00006  -0.00004   0.00003   2.09474
   A50        2.09089  -0.00001  -0.00008   0.00005  -0.00003   2.09086
   A51        2.09696  -0.00001  -0.00000  -0.00000  -0.00000   2.09695
   A52        2.10681   0.00002  -0.00002  -0.00001  -0.00003   2.10678
   A53        2.04423  -0.00002   0.00007  -0.00001   0.00006   2.04429
   A54        2.12876   0.00000  -0.00008   0.00004  -0.00005   2.12871
   A55        1.91518  -0.00000   0.00009  -0.00005   0.00003   1.91522
   A56        1.89333   0.00000  -0.00006  -0.00003  -0.00009   1.89325
   A57        1.96265   0.00000  -0.00003   0.00015   0.00012   1.96277
   A58        1.91292   0.00000  -0.00002  -0.00003  -0.00005   1.91286
   A59        1.88741  -0.00000   0.00000  -0.00003  -0.00003   1.88738
   A60        1.89193  -0.00000   0.00003  -0.00001   0.00002   1.89195
   A61        1.96167   0.00001  -0.00005  -0.00001  -0.00006   1.96161
   A62        1.90396   0.00000   0.00004   0.00002   0.00006   1.90402
   A63        1.90772  -0.00001  -0.00007   0.00001  -0.00006   1.90766
   A64        1.88723  -0.00001   0.00002  -0.00002   0.00000   1.88724
   A65        1.88977   0.00000   0.00005  -0.00000   0.00005   1.88982
   A66        1.91304   0.00000   0.00001  -0.00001   0.00000   1.91304
   A67        1.89740  -0.00000  -0.00004  -0.00001  -0.00004   1.89736
   A68        2.22570  -0.00003  -0.00010  -0.00007  -0.00016   2.22553
   A69        2.15828   0.00003   0.00010   0.00006   0.00016   2.15843
   A70        2.11022  -0.00000  -0.00002   0.00001  -0.00001   2.11021
   A71        2.08331   0.00002  -0.00000   0.00003   0.00002   2.08333
   A72        2.08606  -0.00001   0.00004  -0.00003   0.00000   2.08606
   A73        2.08274   0.00000   0.00001  -0.00001   0.00001   2.08275
   A74        2.08483  -0.00000  -0.00003   0.00002  -0.00001   2.08482
   A75        2.11537  -0.00000   0.00001  -0.00001  -0.00000   2.11537
   A76        2.08277   0.00000   0.00001  -0.00001   0.00000   2.08277
   A77        2.08605  -0.00000  -0.00004   0.00004  -0.00000   2.08605
   A78        2.11424  -0.00000   0.00003  -0.00003   0.00000   2.11424
   A79        2.09762   0.00000  -0.00001   0.00001  -0.00000   2.09762
   A80        2.08910   0.00000   0.00000   0.00000   0.00000   2.08910
   A81        2.09638  -0.00000   0.00001  -0.00001  -0.00000   2.09638
   A82        2.09822  -0.00000  -0.00001   0.00000  -0.00000   2.09822
   A83        2.08915   0.00000   0.00000   0.00000   0.00000   2.08915
   A84        2.09578   0.00000   0.00000  -0.00000  -0.00000   2.09577
   A85        2.09474  -0.00000   0.00000  -0.00000   0.00000   2.09474
   A86        2.09423   0.00000  -0.00000   0.00000   0.00000   2.09423
   A87        2.09411   0.00000  -0.00000   0.00000  -0.00000   2.09411
   A88        1.91816   0.00000  -0.00002   0.00001  -0.00001   1.91815
   A89        1.96019  -0.00000   0.00001   0.00000   0.00002   1.96020
   A90        1.93735   0.00000   0.00004  -0.00002   0.00002   1.93737
   A91        1.87444   0.00000  -0.00003  -0.00001  -0.00004   1.87441
   A92        1.88788  -0.00000   0.00000   0.00000   0.00001   1.88788
   A93        1.88324   0.00000  -0.00000   0.00000   0.00000   1.88324
   A94        1.92182  -0.00000   0.00000   0.00001   0.00001   1.92183
   A95        1.93387  -0.00000  -0.00001  -0.00001  -0.00001   1.93386
   A96        1.95280   0.00000  -0.00004  -0.00002  -0.00005   1.95275
   A97        1.89036   0.00000   0.00001   0.00001   0.00002   1.89037
   A98        1.88049  -0.00000   0.00003   0.00000   0.00003   1.88052
   A99        1.88242  -0.00000   0.00001  -0.00000   0.00001   1.88243
   A100       1.95069  -0.00000  -0.00001   0.00002   0.00001   1.95069
   A101       1.95378   0.00000   0.00002  -0.00000   0.00001   1.95380
   A102       1.91087  -0.00000  -0.00000  -0.00000  -0.00000   1.91087
   A103       1.89449  -0.00000  -0.00000   0.00002   0.00002   1.89451
   A104       1.87722   0.00000   0.00003  -0.00003  -0.00000   1.87722
   A105       1.87365  -0.00000  -0.00003  -0.00002  -0.00004   1.87361
   A106       1.95337   0.00000   0.00003  -0.00001   0.00002   1.95339
   A107       1.95128   0.00000  -0.00001   0.00001  -0.00001   1.95128
   A108       1.91101  -0.00000  -0.00000   0.00000   0.00000   1.91101
   A109       1.89389   0.00000  -0.00001   0.00000  -0.00001   1.89388
   A110       1.87453  -0.00000  -0.00003   0.00000  -0.00003   1.87450
   A111       1.87661  -0.00000   0.00003  -0.00001   0.00002   1.87664
   A112       1.95695   0.00000  -0.00001   0.00001   0.00000   1.95695
   A113       1.92127  -0.00000  -0.00001   0.00000  -0.00001   1.92126
   A114       1.93336  -0.00000   0.00002   0.00000   0.00002   1.93339
   A115       1.87717  -0.00000   0.00001  -0.00001  -0.00001   1.87717
   A116       1.88298  -0.00000   0.00000  -0.00000   0.00000   1.88298
   A117       1.88984   0.00000  -0.00002   0.00000  -0.00001   1.88983
   A118       1.92178  -0.00000   0.00003  -0.00000   0.00002   1.92180
   A119       1.95602  -0.00000  -0.00001  -0.00002  -0.00003   1.95600
   A120       1.93444   0.00000  -0.00003   0.00001  -0.00001   1.93443
   A121       1.87844   0.00000   0.00003  -0.00001   0.00002   1.87846
   A122       1.88753   0.00000  -0.00003   0.00001  -0.00002   1.88751
   A123       1.88330  -0.00000   0.00000   0.00001   0.00001   1.88332
   A124       1.79760   0.00016   0.00053  -0.00009   0.00044   1.79804
   A125       1.90142  -0.00005  -0.00005  -0.00009  -0.00014   1.90128
   A126       1.90235  -0.00001  -0.00008  -0.00001  -0.00008   1.90226
   A127       1.86445  -0.00005  -0.00012   0.00004  -0.00008   1.86438
   A128       1.85557  -0.00003  -0.00016   0.00015  -0.00001   1.85556
   A129       2.11557   0.00002  -0.00002  -0.00001  -0.00003   2.11554
   A130       2.18670  -0.00006  -0.00009  -0.00001  -0.00010   2.18661
   A131       2.13294   0.00005   0.00005   0.00001   0.00006   2.13300
   A132       1.87787   0.00001  -0.00003   0.00001  -0.00001   1.87786
   A133       2.25681  -0.00002   0.00001  -0.00004  -0.00002   2.25679
   A134       1.91501   0.00001   0.00002   0.00001   0.00002   1.91504
   A135       2.11135   0.00001  -0.00003   0.00003  -0.00000   2.11134
   A136       2.25080   0.00001   0.00001   0.00000   0.00002   2.25081
   A137       1.91618  -0.00001  -0.00001  -0.00001  -0.00002   1.91616
   A138       2.11611   0.00000   0.00000   0.00000   0.00000   2.11612
   A139       2.05465  -0.00000   0.00002  -0.00002   0.00000   2.05465
   A140       2.11195  -0.00000  -0.00002  -0.00000  -0.00003   2.11192
   A141       2.11659   0.00001   0.00000   0.00002   0.00002   2.11661
   A142       1.85929  -0.00001   0.00001  -0.00002  -0.00001   1.85927
   A143       2.09344  -0.00001   0.00004  -0.00002   0.00001   2.09345
   A144       2.33023   0.00001  -0.00005   0.00004  -0.00001   2.33022
   A145       2.05540  -0.00000  -0.00000  -0.00000  -0.00001   2.05539
   A146       2.11112   0.00000  -0.00001   0.00001  -0.00000   2.11112
   A147       2.11665   0.00000   0.00001   0.00000   0.00001   2.11666
   A148       1.85609   0.00000  -0.00000   0.00001   0.00001   1.85610
   A149       2.08691  -0.00000  -0.00000   0.00001   0.00000   2.08691
   A150       2.33992  -0.00000   0.00001  -0.00002  -0.00001   2.33991
   A151       2.14604  -0.00000  -0.00000  -0.00000  -0.00000   2.14603
   A152       2.05505  -0.00000  -0.00006   0.00001  -0.00005   2.05500
   A153       2.08209   0.00000   0.00006  -0.00001   0.00006   2.08215
   A154       2.09993  -0.00000  -0.00001   0.00001   0.00000   2.09993
   A155       2.07416   0.00000   0.00003  -0.00002   0.00001   2.07417
   A156       2.10906   0.00000  -0.00002   0.00001  -0.00001   2.10905
   A157       2.14175   0.00000  -0.00000   0.00001   0.00000   2.14175
   A158       2.05208   0.00000   0.00004  -0.00004  -0.00000   2.05208
   A159       2.08930  -0.00000  -0.00003   0.00003  -0.00000   2.08930
   A160       2.10431  -0.00000  -0.00002   0.00001  -0.00001   2.10429
   A161       2.07855  -0.00000   0.00004  -0.00002   0.00002   2.07856
   A162       2.10033   0.00000  -0.00002   0.00002  -0.00001   2.10032
   A163       2.06065   0.00000  -0.00001   0.00001  -0.00001   2.06064
   A164       2.08287  -0.00000   0.00005  -0.00000   0.00005   2.08292
   A165       2.13964   0.00000  -0.00003  -0.00000  -0.00004   2.13960
   A166       2.06184   0.00000   0.00003  -0.00002   0.00001   2.06185
   A167       2.13596  -0.00001  -0.00005   0.00007   0.00002   2.13597
   A168       2.08535   0.00001   0.00003  -0.00005  -0.00003   2.08532
   A169       1.91516   0.00000  -0.00009   0.00006  -0.00003   1.91513
   A170       1.90636  -0.00000   0.00010  -0.00003   0.00007   1.90643
   A171       1.95973   0.00000  -0.00004   0.00002  -0.00002   1.95971
   A172       1.91080  -0.00000   0.00004  -0.00003   0.00001   1.91081
   A173       1.88570  -0.00000   0.00006  -0.00004   0.00002   1.88572
   A174       1.88543   0.00000  -0.00007   0.00001  -0.00005   1.88537
   A175       1.91239  -0.00000  -0.00002  -0.00004  -0.00006   1.91233
   A176       1.90875   0.00000   0.00008  -0.00005   0.00002   1.90878
   A177       1.96319  -0.00000  -0.00010   0.00013   0.00002   1.96321
   A178       1.90878  -0.00000   0.00002  -0.00002  -0.00000   1.90878
   A179       1.88417   0.00000   0.00003  -0.00003   0.00000   1.88417
   A180       1.88576  -0.00000   0.00000   0.00001   0.00001   1.88577
   A181       1.95270   0.00000  -0.00008   0.00004  -0.00004   1.95266
   A182       1.92856  -0.00000   0.00005  -0.00002   0.00003   1.92859
   A183       1.93271  -0.00000  -0.00001  -0.00000  -0.00002   1.93269
   A184       1.87828  -0.00000   0.00005  -0.00002   0.00003   1.87831
   A185       1.88017   0.00000  -0.00001   0.00000  -0.00001   1.88016
   A186       1.88909   0.00000   0.00000  -0.00000   0.00000   1.88909
   A187       1.94891   0.00000   0.00008  -0.00003   0.00005   1.94896
   A188       1.93102  -0.00000  -0.00002   0.00000  -0.00001   1.93101
   A189       1.93047   0.00000  -0.00001  -0.00000  -0.00002   1.93045
   A190       1.88085   0.00000  -0.00002   0.00002  -0.00000   1.88085
   A191       1.88078  -0.00000  -0.00004   0.00001  -0.00002   1.88075
   A192       1.88967   0.00000   0.00000   0.00000   0.00000   1.88967
   A193       1.95091   0.00000   0.00000   0.00001   0.00001   1.95092
   A194       1.95026  -0.00000   0.00005  -0.00001   0.00003   1.95029
   A195       1.91504   0.00000  -0.00004   0.00001  -0.00003   1.91501
   A196       1.89162   0.00000   0.00003  -0.00001   0.00002   1.89164
   A197       1.87606  -0.00000   0.00001  -0.00001   0.00000   1.87606
   A198       1.87697   0.00000  -0.00005   0.00001  -0.00004   1.87692
   A199       1.93014   0.00000   0.00003  -0.00001   0.00002   1.93017
   A200       1.95081   0.00000  -0.00005   0.00003  -0.00002   1.95079
   A201       1.93116  -0.00000  -0.00002  -0.00000  -0.00002   1.93113
   A202       1.87943  -0.00000   0.00003  -0.00002   0.00001   1.87944
   A203       1.88523  -0.00000  -0.00001   0.00001   0.00000   1.88523
   A204       1.88479  -0.00000   0.00001  -0.00001  -0.00000   1.88478
   A205       1.95115   0.00000   0.00001  -0.00002  -0.00000   1.95115
   A206       1.92877  -0.00000  -0.00001   0.00000  -0.00001   1.92876
   A207       1.93251  -0.00000   0.00001  -0.00000   0.00001   1.93251
   A208       1.87975  -0.00000  -0.00002   0.00002   0.00000   1.87975
   A209       1.88015  -0.00000   0.00001  -0.00000   0.00000   1.88015
   A210       1.88926   0.00000  -0.00000   0.00000   0.00000   1.88927
   A211       1.95246  -0.00000  -0.00001   0.00000  -0.00001   1.95245
   A212       1.95122  -0.00000  -0.00001   0.00001   0.00000   1.95122
   A213       1.91408   0.00000   0.00001  -0.00001   0.00001   1.91409
   A214       1.89125  -0.00000  -0.00001   0.00002   0.00001   1.89125
   A215       1.87571   0.00000   0.00000  -0.00001  -0.00001   1.87571
   A216       1.87600   0.00000   0.00002  -0.00002   0.00000   1.87600
   A217       2.19441   0.00006  -0.00015   0.00011  -0.00003   2.19438
   A218       2.18339  -0.00004  -0.00007  -0.00009  -0.00016   2.18323
   A219       1.88973  -0.00002  -0.00006   0.00001  -0.00005   1.88969
   A220       2.26459   0.00001  -0.00007   0.00002  -0.00005   2.26453
   A221       1.90716   0.00001   0.00003   0.00002   0.00004   1.90720
   A222       2.11142  -0.00002   0.00005  -0.00003   0.00001   2.11143
   A223       2.25803  -0.00000  -0.00007  -0.00000  -0.00008   2.25796
   A224       1.91017   0.00001   0.00009  -0.00004   0.00005   1.91022
   A225       2.11469  -0.00001  -0.00002   0.00005   0.00002   2.11471
   A226       2.05715   0.00002  -0.00000   0.00003   0.00003   2.05717
   A227       2.11558  -0.00002  -0.00012   0.00003  -0.00009   2.11549
   A228       2.11022  -0.00000   0.00013  -0.00006   0.00006   2.11028
   A229       1.85965   0.00000  -0.00000  -0.00001  -0.00001   1.85964
   A230       2.08901   0.00001  -0.00004   0.00001  -0.00003   2.08898
   A231       2.33452  -0.00001   0.00004  -0.00000   0.00004   2.33456
   A232       2.05600   0.00000   0.00003  -0.00003  -0.00000   2.05599
   A233       2.11154   0.00000  -0.00007   0.00002  -0.00005   2.11149
   A234       2.11556  -0.00001   0.00004   0.00001   0.00005   2.11561
   A235       1.85789  -0.00000  -0.00005   0.00002  -0.00003   1.85786
   A236       2.08792   0.00001   0.00000  -0.00002  -0.00002   2.08790
   A237       2.33736  -0.00000   0.00005   0.00000   0.00005   2.33741
   A238       2.14325  -0.00000  -0.00004   0.00000  -0.00004   2.14321
   A239       2.04975  -0.00000   0.00006  -0.00004   0.00002   2.04977
   A240       2.09013   0.00000  -0.00002   0.00004   0.00002   2.09015
   A241       2.10522   0.00000  -0.00001   0.00002   0.00001   2.10523
   A242       2.07841  -0.00000   0.00006  -0.00005   0.00001   2.07842
   A243       2.09954   0.00000  -0.00005   0.00003  -0.00001   2.09953
   A244       2.14199   0.00000  -0.00002   0.00001  -0.00001   2.14197
   A245       2.05055  -0.00000   0.00005  -0.00003   0.00002   2.05057
   A246       2.09063   0.00000  -0.00003   0.00002  -0.00001   2.09062
   A247       2.10455   0.00000   0.00000  -0.00000   0.00000   2.10455
   A248       2.07908  -0.00000   0.00005  -0.00001   0.00004   2.07912
   A249       2.09955   0.00000  -0.00005   0.00001  -0.00004   2.09951
   A250       2.06028  -0.00001   0.00005  -0.00003   0.00002   2.06030
   A251       2.13811   0.00000   0.00001   0.00002   0.00002   2.13813
   A252       2.08456   0.00001  -0.00006   0.00002  -0.00004   2.08451
   A253       2.06070  -0.00000   0.00001   0.00000   0.00001   2.06071
   A254       2.13759  -0.00000  -0.00006   0.00006   0.00001   2.13760
   A255       2.08489   0.00001   0.00005  -0.00007  -0.00002   2.08487
   A256       1.91584   0.00000  -0.00005  -0.00000  -0.00006   1.91578
   A257       1.90439  -0.00000  -0.00002   0.00004   0.00002   1.90441
   A258       1.96153  -0.00000   0.00003   0.00001   0.00004   1.96158
   A259       1.90846  -0.00000  -0.00000   0.00000   0.00000   1.90846
   A260       1.88436  -0.00000   0.00005  -0.00004   0.00001   1.88437
   A261       1.88853   0.00000  -0.00001  -0.00001  -0.00002   1.88851
   A262       1.96191  -0.00000  -0.00007   0.00013   0.00006   1.96197
   A263       1.90691   0.00000  -0.00006  -0.00007  -0.00012   1.90679
   A264       1.91201   0.00000   0.00012  -0.00004   0.00008   1.91210
   A265       1.88469   0.00000   0.00005   0.00001   0.00006   1.88475
   A266       1.88659  -0.00000  -0.00007   0.00000  -0.00007   1.88652
   A267       1.91107  -0.00000   0.00002  -0.00004  -0.00001   1.91106
   A268       1.92637  -0.00000   0.00002  -0.00000   0.00001   1.92638
   A269       1.95452   0.00000  -0.00004   0.00001  -0.00003   1.95449
   A270       1.93514   0.00000   0.00000  -0.00001  -0.00000   1.93514
   A271       1.87655  -0.00000   0.00002  -0.00001   0.00001   1.87656
   A272       1.88827   0.00000   0.00001  -0.00000   0.00001   1.88828
   A273       1.88051  -0.00000  -0.00000   0.00000   0.00000   1.88052
   A274       1.93353  -0.00000   0.00000  -0.00001  -0.00000   1.93353
   A275       1.94811  -0.00000   0.00002   0.00001   0.00003   1.94814
   A276       1.92923   0.00000  -0.00002  -0.00000  -0.00002   1.92921
   A277       1.88029   0.00000   0.00001  -0.00001   0.00001   1.88029
   A278       1.88937  -0.00000  -0.00001   0.00001  -0.00000   1.88937
   A279       1.88114   0.00000  -0.00001  -0.00000  -0.00001   1.88113
   A280       1.95042  -0.00000   0.00001   0.00002   0.00002   1.95044
   A281       1.95275   0.00000  -0.00003   0.00002  -0.00001   1.95274
   A282       1.91421   0.00000   0.00000  -0.00002  -0.00002   1.91419
   A283       1.89169   0.00000  -0.00001   0.00001   0.00000   1.89169
   A284       1.87761   0.00000   0.00001  -0.00002  -0.00001   1.87759
   A285       1.87407  -0.00000   0.00003  -0.00002   0.00001   1.87408
   A286       1.95216   0.00000  -0.00002   0.00001  -0.00001   1.95215
   A287       1.95118   0.00000   0.00005   0.00002   0.00007   1.95125
   A288       1.91387  -0.00000  -0.00000  -0.00001  -0.00001   1.91386
   A289       1.89176  -0.00000   0.00001   0.00000   0.00001   1.89177
   A290       1.87551   0.00000   0.00003  -0.00001   0.00002   1.87552
   A291       1.87626   0.00000  -0.00007  -0.00001  -0.00008   1.87618
   A292       1.95185  -0.00000  -0.00005  -0.00001  -0.00006   1.95179
   A293       1.92908  -0.00000   0.00002  -0.00000   0.00002   1.92910
   A294       1.93071   0.00000  -0.00002   0.00000  -0.00002   1.93069
   A295       1.87935   0.00000   0.00004   0.00000   0.00005   1.87940
   A296       1.88072  -0.00000   0.00002  -0.00001   0.00002   1.88073
   A297       1.88992  -0.00000  -0.00002   0.00002   0.00000   1.88993
   A298       1.95147   0.00000   0.00008   0.00000   0.00008   1.95155
   A299       1.93339  -0.00000  -0.00000   0.00000   0.00000   1.93340
   A300       1.92832   0.00000  -0.00003  -0.00000  -0.00004   1.92828
   A301       1.88045  -0.00000   0.00002  -0.00001   0.00002   1.88047
   A302       1.87879  -0.00000  -0.00006   0.00000  -0.00006   1.87873
   A303       1.88911  -0.00000  -0.00000   0.00000  -0.00000   1.88911
    D1        0.00322  -0.00000  -0.00019  -0.00001  -0.00020   0.00301
    D2       -3.10576  -0.00000  -0.00081   0.00014  -0.00067  -3.10643
    D3        3.11522   0.00000   0.00057  -0.00030   0.00027   3.11549
    D4        0.00624  -0.00000  -0.00005  -0.00015  -0.00020   0.00604
    D5        3.11867  -0.00000   0.00063  -0.00034   0.00029   3.11896
    D6        0.00061   0.00000   0.00022  -0.00014   0.00008   0.00068
    D7        0.00151  -0.00000   0.00000  -0.00010  -0.00010   0.00141
    D8       -3.11655  -0.00000  -0.00041   0.00010  -0.00031  -3.11686
    D9       -3.09819  -0.00000  -0.00072   0.00047  -0.00026  -3.09844
   D10       -0.01986  -0.00001  -0.00136   0.00022  -0.00114  -0.02100
   D11        0.01666  -0.00000  -0.00004   0.00021   0.00017   0.01683
   D12        3.09499  -0.00001  -0.00067  -0.00004  -0.00071   3.09427
   D13       -0.02785   0.00000  -0.00006  -0.00002  -0.00008  -0.02792
   D14        3.09329   0.00001  -0.00010   0.00027   0.00017   3.09346
   D15        3.12500   0.00001  -0.00022  -0.00007  -0.00029   3.12471
   D16       -0.03705   0.00001  -0.00026   0.00021  -0.00004  -0.03709
   D17       -3.10303  -0.00000  -0.00019   0.00012  -0.00007  -3.10310
   D18        0.02880  -0.00000   0.00002   0.00005   0.00007   0.02886
   D19        0.02918  -0.00001  -0.00006   0.00016   0.00011   0.02928
   D20       -3.12218  -0.00001   0.00015   0.00009   0.00024  -3.12194
   D21        3.10239   0.00000   0.00020  -0.00018   0.00002   3.10241
   D22        0.02108   0.00001   0.00081   0.00006   0.00087   0.02195
   D23       -0.02905   0.00000   0.00006  -0.00023  -0.00017  -0.02922
   D24       -3.11036   0.00002   0.00067   0.00001   0.00068  -3.10967
   D25       -0.00685   0.00000  -0.00000   0.00016   0.00016  -0.00669
   D26       -3.13014  -0.00000  -0.00011   0.00013   0.00002  -3.13012
   D27        3.10192   0.00000   0.00062   0.00001   0.00063   3.10255
   D28       -0.02137   0.00000   0.00051  -0.00002   0.00049  -0.02088
   D29       -0.01845   0.00000   0.00003  -0.00004  -0.00000  -0.01845
   D30        3.13511   0.00001  -0.00022   0.00005  -0.00017   3.13494
   D31        3.09456   0.00000   0.00053  -0.00028   0.00025   3.09481
   D32       -0.03507   0.00000   0.00028  -0.00020   0.00008  -0.03499
   D33       -0.00102  -0.00000  -0.00005   0.00016   0.00010  -0.00092
   D34        3.12603   0.00000   0.00003   0.00002   0.00004   3.12607
   D35       -3.11105   0.00000  -0.00060   0.00043  -0.00018  -3.11123
   D36        0.01600   0.00000  -0.00052   0.00029  -0.00024   0.01576
   D37        0.00473  -0.00000   0.00002  -0.00002  -0.00000   0.00473
   D38       -3.13488  -0.00000   0.00007   0.00008   0.00015  -3.13473
   D39       -3.11634  -0.00001   0.00006  -0.00031  -0.00025  -3.11659
   D40        0.02723  -0.00001   0.00010  -0.00020  -0.00010   0.02712
   D41       -0.00587  -0.00000   0.00007  -0.00004   0.00002  -0.00585
   D42        3.13680   0.00000   0.00008  -0.00005   0.00004   3.13684
   D43        3.12250  -0.00000   0.00035  -0.00014   0.00021   3.12271
   D44       -0.01802   0.00000   0.00036  -0.00014   0.00022  -0.01779
   D45        0.00651  -0.00000   0.00016  -0.00014   0.00002   0.00653
   D46       -3.10320  -0.00000   0.00013  -0.00015  -0.00003  -3.10322
   D47        3.12938   0.00000   0.00027  -0.00012   0.00015   3.12953
   D48        0.01967  -0.00000   0.00024  -0.00013   0.00011   0.01978
   D49       -0.00240   0.00000  -0.00013  -0.00002  -0.00015  -0.00254
   D50        3.10851   0.00000  -0.00010  -0.00001  -0.00011   3.10840
   D51       -3.12940   0.00000  -0.00021   0.00012  -0.00009  -3.12949
   D52       -0.01849   0.00000  -0.00018   0.00013  -0.00005  -0.01854
   D53        0.01694  -0.00000   0.00007   0.00002   0.00009   0.01703
   D54       -3.12622  -0.00001  -0.00006   0.00012   0.00007  -3.12616
   D55       -3.12668  -0.00000   0.00002  -0.00008  -0.00006  -3.12674
   D56        0.01334  -0.00000  -0.00010   0.00002  -0.00009   0.01326
   D57       -0.01616   0.00001  -0.00011   0.00001  -0.00010  -0.01626
   D58        3.12695   0.00001   0.00001  -0.00009  -0.00008   3.12687
   D59        3.12435  -0.00000  -0.00013   0.00001  -0.00011   3.12424
   D60       -0.01573   0.00000  -0.00001  -0.00008  -0.00009  -0.01582
   D61       -2.19622   0.00000  -0.00028   0.00030   0.00002  -2.19619
   D62        1.99757   0.00000  -0.00027   0.00039   0.00012   1.99769
   D63       -0.09475   0.00000  -0.00024   0.00033   0.00009  -0.09466
   D64        0.97732  -0.00000  -0.00031   0.00029  -0.00002   0.97730
   D65       -1.11208  -0.00000  -0.00030   0.00037   0.00008  -1.11200
   D66        3.07879  -0.00000  -0.00027   0.00032   0.00004   3.07883
   D67        0.02436  -0.00000   0.00102  -0.00069   0.00032   0.02468
   D68        2.11732  -0.00000   0.00104  -0.00071   0.00033   2.11765
   D69       -2.07434  -0.00000   0.00103  -0.00070   0.00034  -2.07401
   D70       -3.11881  -0.00000   0.00089  -0.00059   0.00030  -3.11851
   D71       -1.02585  -0.00001   0.00092  -0.00061   0.00031  -1.02554
   D72        1.06567  -0.00000   0.00091  -0.00060   0.00031   1.06599
   D73       -0.00667   0.00001   0.00041  -0.00013   0.00028  -0.00639
   D74       -3.12972  -0.00001  -0.00031  -0.00007  -0.00038  -3.13010
   D75        2.55804   0.00000   0.00142  -0.00015   0.00127   2.55931
   D76       -0.56501  -0.00002   0.00070  -0.00010   0.00061  -0.56440
   D77        0.02918  -0.00002  -0.00046  -0.00014  -0.00060   0.02858
   D78       -3.02582  -0.00003   0.00000  -0.00040  -0.00040  -3.02621
   D79       -2.53083  -0.00004  -0.00153  -0.00013  -0.00165  -2.53249
   D80        0.69736  -0.00005  -0.00106  -0.00039  -0.00145   0.69591
   D81        2.06458  -0.00002  -0.00012   0.00011  -0.00002   2.06457
   D82       -1.14902  -0.00003  -0.00085  -0.00018  -0.00103  -1.15005
   D83       -1.64823  -0.00001   0.00083   0.00010   0.00093  -1.64730
   D84        1.42135  -0.00003   0.00010  -0.00018  -0.00008   1.42127
   D85       -0.04615   0.00002   0.00004   0.00023   0.00027  -0.04589
   D86        3.07515  -0.00002  -0.00069   0.00028  -0.00042   3.07474
   D87        3.07595   0.00004   0.00079   0.00016   0.00096   3.07690
   D88       -0.08593   0.00001   0.00006   0.00021   0.00027  -0.08566
   D89        1.94319  -0.00002  -0.00191  -0.00004  -0.00195   1.94124
   D90       -0.98676  -0.00001  -0.00002  -0.00030  -0.00032  -0.98708
   D91       -1.17981  -0.00004  -0.00262   0.00002  -0.00261  -1.18242
   D92        2.17342  -0.00004  -0.00074  -0.00024  -0.00098   2.17244
   D93        0.07818  -0.00003  -0.00046  -0.00005  -0.00052   0.07767
   D94       -2.81684  -0.00005  -0.00187  -0.00018  -0.00205  -2.81889
   D95       -3.04323   0.00000   0.00026  -0.00010   0.00016  -3.04307
   D96        0.34493  -0.00001  -0.00114  -0.00023  -0.00137   0.34356
   D97       -0.05635   0.00001   0.00041  -0.00021   0.00020  -0.05615
   D98        3.04735   0.00001  -0.00010   0.00015   0.00005   3.04741
   D99        2.83684   0.00006   0.00184  -0.00007   0.00177   2.83862
   D100      -0.34264   0.00005   0.00133   0.00030   0.00163  -0.34101
   D101       1.37468   0.00003   0.00057   0.00082   0.00140   1.37608
   D102      -2.93351   0.00003   0.00067   0.00079   0.00146  -2.93205
   D103      -0.59065  -0.00000   0.00053   0.00070   0.00123  -0.58942
   D104      -1.52199   0.00001  -0.00079   0.00067  -0.00012  -1.52211
   D105       0.45300   0.00001  -0.00069   0.00064  -0.00005   0.45295
   D106       2.79586  -0.00003  -0.00083   0.00055  -0.00028   2.79558
   D107       0.00248   0.00001   0.00006   0.00030   0.00036   0.00284
   D108       3.05320   0.00002  -0.00042   0.00058   0.00015   3.05336
   D109      -3.10110   0.00002   0.00057  -0.00006   0.00051  -3.10058
   D110      -0.05037   0.00003   0.00009   0.00021   0.00030  -0.05007
   D111      -1.39596   0.00001   0.00178  -0.00081   0.00098  -1.39499
   D112       1.25814   0.00001   0.00162  -0.00077   0.00084   1.25899
   D113       1.83340   0.00000   0.00225  -0.00107   0.00118   1.83458
   D114      -1.79568  -0.00000   0.00208  -0.00103   0.00105  -1.79463
   D115       3.13521  -0.00000   0.00002   0.00001   0.00003   3.13524
   D116      -1.06246   0.00000  -0.00002   0.00001  -0.00001  -1.06248
   D117       1.04752   0.00000   0.00001   0.00000   0.00002   1.04753
   D118      -1.07059   0.00000  -0.00001  -0.00008  -0.00009  -1.07068
   D119       1.01492   0.00000  -0.00006  -0.00007  -0.00013   1.01479
   D120       3.12490   0.00000  -0.00002  -0.00008  -0.00010   3.12480
   D121       0.98867  -0.00000   0.00001  -0.00013  -0.00012   0.98855
   D122       3.07418   0.00000  -0.00004  -0.00012  -0.00016   3.07402
   D123      -1.09903  -0.00000  -0.00000  -0.00013  -0.00013  -1.09916
   D124      -3.13083  -0.00000  -0.00022  -0.00003  -0.00025  -3.13108
   D125      -1.03990  -0.00000  -0.00022  -0.00001  -0.00023  -1.04012
   D126       1.06155  -0.00000  -0.00024  -0.00003  -0.00026   1.06129
   D127       1.06154   0.00000  -0.00028   0.00007  -0.00021   1.06133
   D128      -3.13071   0.00000  -0.00028   0.00009  -0.00019  -3.13090
   D129      -1.02926   0.00000  -0.00029   0.00007  -0.00022  -1.02948
   D130      -0.99489   0.00000  -0.00029   0.00013  -0.00015  -0.99505
   D131       1.09604   0.00000  -0.00028   0.00015  -0.00013   1.09591
   D132      -3.08570   0.00000  -0.00030   0.00013  -0.00016  -3.08586
   D133      -1.04017   0.00000  -0.00007   0.00005  -0.00002  -1.04019
   D134       1.08935   0.00000  -0.00007   0.00009   0.00002   1.08937
   D135      -3.11826   0.00000  -0.00010   0.00007  -0.00002  -3.11828
   D136       1.07724  -0.00000   0.00002   0.00006   0.00008   1.07732
   D137      -3.07642   0.00000   0.00002   0.00010   0.00012  -3.07630
   D138      -1.00084  -0.00000  -0.00001   0.00008   0.00007  -1.00077
   D139      -3.13331   0.00000   0.00000   0.00001   0.00001  -3.13330
   D140      -1.00379   0.00000   0.00000   0.00005   0.00005  -1.00374
   D141       1.07179   0.00000  -0.00002   0.00003   0.00001   1.07180
   D142      -1.07429   0.00000  -0.00010  -0.00022  -0.00031  -1.07461
   D143       1.05458   0.00000  -0.00010  -0.00021  -0.00031   1.05427
   D144       3.13238   0.00000  -0.00007  -0.00022  -0.00029   3.13209
   D145       3.10625  -0.00000  -0.00013  -0.00023  -0.00036   3.10589
   D146      -1.04806   0.00000  -0.00013  -0.00022  -0.00036  -1.04842
   D147       1.02974  -0.00000  -0.00011  -0.00023  -0.00034   1.02940
   D148       1.03476  -0.00000  -0.00019  -0.00020  -0.00039   1.03437
   D149      -3.11955  -0.00000  -0.00019  -0.00020  -0.00039  -3.11994
   D150      -1.04175  -0.00000  -0.00016  -0.00021  -0.00037  -1.04212
   D151       1.06577  -0.00000  -0.00010   0.00005  -0.00005   1.06572
   D152      -3.12846  -0.00000  -0.00010   0.00004  -0.00006  -3.12852
   D153      -1.03885  -0.00000  -0.00011   0.00004  -0.00007  -1.03892
   D154      -3.07909   0.00000  -0.00012   0.00004  -0.00008  -3.07917
   D155      -0.99014   0.00000  -0.00012   0.00003  -0.00009  -0.99023
   D156       1.09947   0.00000  -0.00014   0.00004  -0.00010   1.09937
   D157      -1.02246   0.00000  -0.00004   0.00003  -0.00002  -1.02248
   D158       1.06649   0.00000  -0.00004   0.00002  -0.00003   1.06646
   D159      -3.12708   0.00000  -0.00006   0.00002  -0.00003  -3.12712
   D160      -3.13352   0.00000  -0.00019   0.00024   0.00004  -3.13348
   D161      -1.04323   0.00000  -0.00014   0.00021   0.00007  -1.04316
   D162       1.06192  -0.00000  -0.00016   0.00022   0.00006   1.06198
   D163       1.00746  -0.00000  -0.00012   0.00023   0.00012   1.00758
   D164       3.09775  -0.00000  -0.00006   0.00021   0.00015   3.09789
   D165      -1.08029  -0.00001  -0.00008   0.00022   0.00014  -1.08015
   D166      -1.04759   0.00000  -0.00018   0.00026   0.00008  -1.04751
   D167       1.04270   0.00000  -0.00012   0.00023   0.00011   1.04281
   D168      -3.13534  -0.00000  -0.00015   0.00025   0.00010  -3.13524
   D169      -0.00773  -0.00000  -0.00005  -0.00002  -0.00006  -0.00779
   D170       3.11043  -0.00000  -0.00009  -0.00000  -0.00009   3.11033
   D171       3.04242   0.00001   0.00020   0.00001   0.00021   3.04263
   D172      -0.12261   0.00001   0.00016   0.00002   0.00018  -0.12243
   D173       0.00626   0.00000   0.00003   0.00003   0.00006   0.00632
   D174      -3.11889   0.00000   0.00002   0.00004   0.00006  -3.11883
   D175      -3.04374  -0.00001  -0.00022   0.00000  -0.00021  -3.04396
   D176       0.11429  -0.00001  -0.00022   0.00001  -0.00021   0.11408
   D177      -1.54916  -0.00004  -0.00064  -0.00058  -0.00121  -1.55038
   D178       2.73215  -0.00003  -0.00077  -0.00045  -0.00122   2.73093
   D179       0.45028   0.00000  -0.00056  -0.00056  -0.00112   0.44916
   D180       1.50227  -0.00003  -0.00040  -0.00055  -0.00095   1.50132
   D181      -0.49961  -0.00002  -0.00053  -0.00043  -0.00095  -0.50056
   D182      -2.78147   0.00001  -0.00032  -0.00054  -0.00086  -2.78233
   D183       0.00048  -0.00000   0.00005  -0.00004   0.00001   0.00050
   D184       3.12757   0.00000   0.00005  -0.00001   0.00004   3.12762
   D185      -3.11725   0.00000   0.00010  -0.00005   0.00004  -3.11721
   D186       0.00984   0.00000   0.00010  -0.00002   0.00007   0.00991
   D187       0.00246  -0.00000  -0.00001   0.00001  -0.00000   0.00245
   D188      -3.12930  -0.00000   0.00001  -0.00002  -0.00002  -3.12932
   D189       3.12734  -0.00000  -0.00001  -0.00000  -0.00001   3.12733
   D190      -0.00442  -0.00000   0.00001  -0.00003  -0.00002  -0.00445
   D191       0.00813   0.00000  -0.00004   0.00008   0.00004   0.00817
   D192       3.13446   0.00000  -0.00001   0.00007   0.00005   3.13451
   D193      -3.11890   0.00000  -0.00004   0.00005   0.00001  -3.11889
   D194       0.00743   0.00000  -0.00001   0.00004   0.00003   0.00745
   D195      -0.00962  -0.00000   0.00002  -0.00006  -0.00004  -0.00966
   D196      -3.13595   0.00000  -0.00001  -0.00005  -0.00006  -3.13601
   D197       3.12210  -0.00000  -0.00000  -0.00003  -0.00003   3.12207
   D198      -0.00423  -0.00000  -0.00003  -0.00002  -0.00005  -0.00427
   D199      -0.41297   0.00002   0.00012   0.00015   0.00027  -0.41270
   D200       2.73523   0.00002   0.00004   0.00019   0.00022   2.73545
   D201      -3.12577   0.00001   0.00024   0.00012   0.00037  -3.12540
   D202       0.02243   0.00000   0.00016   0.00016   0.00032   0.02275
   D203       0.37298   0.00002   0.00016  -0.00029  -0.00012   0.37286
   D204      -2.75375   0.00002  -0.00012   0.00003  -0.00009  -2.75385
   D205       3.10186  -0.00001   0.00000  -0.00026  -0.00026   3.10160
   D206      -0.02488  -0.00000  -0.00029   0.00006  -0.00023  -0.02511
   D207       3.12327  -0.00000  -0.00011   0.00020   0.00009   3.12336
   D208      -0.01802   0.00001   0.00023   0.00016   0.00040  -0.01762
   D209      -0.02557   0.00000  -0.00003   0.00017   0.00014  -0.02543
   D210       3.11633   0.00001   0.00032   0.00013   0.00045   3.11678
   D211      -0.01146  -0.00000   0.00002  -0.00030  -0.00028  -0.01174
   D212      -3.13296  -0.00000  -0.00004  -0.00012  -0.00016  -3.13312
   D213       3.13609  -0.00001  -0.00005  -0.00027  -0.00032   3.13577
   D214       0.01458  -0.00000  -0.00011  -0.00009  -0.00020   0.01439
   D215      -3.12813   0.00000  -0.00044   0.00044  -0.00000  -3.12813
   D216       0.02024   0.00000  -0.00024   0.00024   0.00001   0.02025
   D217      -0.00288  -0.00000  -0.00012   0.00009  -0.00004  -0.00292
   D218      -3.13770  -0.00000   0.00008  -0.00011  -0.00003  -3.13772
   D219       0.01766   0.00000   0.00030  -0.00024   0.00006   0.01772
   D220       3.13834  -0.00000   0.00035  -0.00032   0.00003   3.13837
   D221      -3.11042   0.00001   0.00003   0.00005   0.00008  -3.11033
   D222       0.01025   0.00000   0.00009  -0.00003   0.00006   0.01031
   D223       0.01570   0.00000   0.00009  -0.00002   0.00007   0.01577
   D224      -3.12982   0.00000   0.00018  -0.00009   0.00010  -3.12972
   D225      -3.12620  -0.00001  -0.00025   0.00002  -0.00024  -3.12644
   D226       0.01147  -0.00001  -0.00016  -0.00005  -0.00021   0.01125
   D227      -0.00372  -0.00000  -0.00019   0.00032   0.00014  -0.00358
   D228      -3.11999   0.00001  -0.00026   0.00042   0.00017  -3.11982
   D229       3.11387  -0.00000  -0.00012   0.00011  -0.00001   3.11386
   D230      -0.00240   0.00000  -0.00019   0.00021   0.00002  -0.00238
   D231       0.00747   0.00000   0.00018  -0.00014   0.00004   0.00751
   D232       3.14054   0.00000  -0.00000  -0.00003  -0.00004   3.14051
   D233      -3.10757   0.00001   0.00011   0.00010   0.00021  -3.10736
   D234       0.02551   0.00000  -0.00008   0.00021   0.00013   0.02563
   D235      -0.00505   0.00000   0.00003   0.00000   0.00004  -0.00501
   D236      -3.13610  -0.00000   0.00017  -0.00019  -0.00002  -3.13613
   D237       3.12974   0.00000  -0.00017   0.00020   0.00003   3.12977
   D238      -0.00131  -0.00000  -0.00003   0.00000  -0.00003  -0.00135
   D239      -0.00979  -0.00000   0.00004  -0.00012  -0.00008  -0.00988
   D240       3.13474   0.00000  -0.00006   0.00008   0.00002   3.13476
   D241       3.10386  -0.00001   0.00011  -0.00023  -0.00012   3.10374
   D242      -0.03479  -0.00000   0.00001  -0.00003  -0.00002  -0.03481
   D243       0.00546  -0.00000  -0.00002  -0.00020  -0.00022   0.00524
   D244      -3.12919  -0.00000  -0.00012  -0.00001  -0.00013  -3.12932
   D245      -3.13215  -0.00001  -0.00011  -0.00013  -0.00025  -3.13239
   D246       0.01639  -0.00000  -0.00021   0.00005  -0.00016   0.01623
   D247      -0.01707   0.00000  -0.00012   0.00028   0.00016  -0.01691
   D248       3.11734  -0.00000  -0.00002   0.00008   0.00007   3.11741
   D249       3.13322   0.00000   0.00007   0.00017   0.00024   3.13346
   D250      -0.01556   0.00000   0.00017  -0.00002   0.00015  -0.01541
   D251       0.00544  -0.00000   0.00009  -0.00015  -0.00006   0.00538
   D252      -3.12669  -0.00000   0.00007  -0.00026  -0.00019  -3.12688
   D253       3.13628   0.00000  -0.00005   0.00005  -0.00000   3.13628
   D254       0.00415  -0.00000  -0.00006  -0.00006  -0.00012   0.00403
   D255       0.00218   0.00000  -0.00012   0.00020   0.00008   0.00226
   D256       3.13459   0.00000  -0.00011   0.00032   0.00021   3.13480
   D257       3.14079  -0.00000  -0.00002   0.00000  -0.00002   3.14077
   D258      -0.00998   0.00000  -0.00001   0.00011   0.00010  -0.00988
   D259      -1.02774  -0.00000   0.00047  -0.00059  -0.00013  -1.02787
   D260       1.06699  -0.00000   0.00053  -0.00061  -0.00008   1.06691
   D261      -3.12512  -0.00000   0.00049  -0.00060  -0.00011  -3.12523
   D262       2.12112  -0.00000   0.00036  -0.00039  -0.00003   2.12109
   D263      -2.06733  -0.00000   0.00042  -0.00041   0.00001  -2.06732
   D264       0.02374  -0.00000   0.00038  -0.00040  -0.00002   0.02373
   D265      -2.10019   0.00000   0.00064   0.00022   0.00086  -2.09933
   D266       2.09095   0.00000   0.00059   0.00030   0.00088   2.09183
   D267      -0.00438   0.00000   0.00060   0.00024   0.00084  -0.00354
   D268       1.05099  -0.00000   0.00063   0.00011   0.00074   1.05172
   D269      -1.04106  -0.00000   0.00058   0.00018   0.00076  -1.04030
   D270      -3.13639  -0.00000   0.00059   0.00013   0.00071  -3.13568
   D271       1.05404   0.00000   0.00001   0.00011   0.00012   1.05417
   D272      -3.13665  -0.00000   0.00005   0.00010   0.00016  -3.13649
   D273      -1.04367  -0.00000   0.00008   0.00008   0.00017  -1.04350
   D274      -1.03798   0.00000  -0.00009   0.00013   0.00004  -1.03794
   D275       1.05451   0.00000  -0.00004   0.00012   0.00008   1.05458
   D276      -3.13570   0.00000  -0.00001   0.00010   0.00009  -3.13561
   D277      -3.08729   0.00000  -0.00007   0.00015   0.00009  -3.08720
   D278      -0.99480   0.00000  -0.00002   0.00014   0.00012  -0.99468
   D279       1.09818   0.00000   0.00001   0.00012   0.00013   1.09831
   D280      -1.05120   0.00000   0.00005  -0.00010  -0.00005  -1.05125
   D281       1.04370   0.00000   0.00007  -0.00010  -0.00003   1.04367
   D282       3.13755   0.00000   0.00005  -0.00009  -0.00005   3.13751
   D283       1.04622   0.00000   0.00003  -0.00006  -0.00004   1.04618
   D284       3.14112   0.00000   0.00005  -0.00006  -0.00001   3.14110
   D285      -1.04822   0.00000   0.00003  -0.00005  -0.00003  -1.04825
   D286       3.09570  -0.00000   0.00008  -0.00012  -0.00004   3.09566
   D287      -1.09259  -0.00000   0.00010  -0.00011  -0.00002  -1.09260
   D288       1.00126  -0.00000   0.00008  -0.00011  -0.00003   1.00123
   D289      -1.06523  -0.00000  -0.00007   0.00002  -0.00005  -1.06527
   D290       1.05820  -0.00000   0.00000   0.00001   0.00001   1.05822
   D291       3.13844  -0.00000  -0.00006   0.00002  -0.00004   3.13840
   D292       3.10358  -0.00000   0.00003  -0.00004  -0.00001   3.10357
   D293      -1.05618  -0.00000   0.00011  -0.00006   0.00005  -1.05612
   D294       1.02406  -0.00000   0.00004  -0.00004   0.00000   1.02406
   D295       1.03799  -0.00000  -0.00001   0.00000  -0.00001   1.03798
   D296      -3.12177  -0.00000   0.00006  -0.00001   0.00005  -3.12171
   D297      -1.04153  -0.00000  -0.00000   0.00000   0.00000  -1.04153
   D298      -3.12438  -0.00000   0.00004  -0.00026  -0.00022  -3.12460
   D299      -1.03062  -0.00000   0.00006  -0.00026  -0.00020  -1.03081
   D300       1.07062  -0.00000   0.00004  -0.00026  -0.00022   1.07040
   D301      -1.03235   0.00000   0.00013  -0.00035  -0.00022  -1.03258
   D302       1.06141   0.00000   0.00016  -0.00036  -0.00020   1.06121
   D303      -3.12053   0.00000   0.00013  -0.00036  -0.00023  -3.12076
   D304       1.01538   0.00000   0.00016  -0.00037  -0.00021   1.01517
   D305       3.10915   0.00000   0.00019  -0.00038  -0.00019   3.10896
   D306      -1.07279   0.00000   0.00016  -0.00038  -0.00022  -1.07301
   D307       1.05840   0.00000  -0.00005   0.00000  -0.00005   1.05835
   D308      -3.13132   0.00000  -0.00007   0.00001  -0.00006  -3.13137
   D309      -1.03811   0.00000  -0.00007   0.00002  -0.00005  -1.03817
   D310      -1.03586   0.00000  -0.00008   0.00009   0.00001  -1.03585
   D311       1.05760   0.00000  -0.00010   0.00010  -0.00000   1.05760
   D312      -3.13238   0.00000  -0.00010   0.00010   0.00000  -3.13238
   D313      -3.08260  -0.00000  -0.00013   0.00013   0.00000  -3.08260
   D314      -0.98913  -0.00000  -0.00015   0.00014  -0.00001  -0.98914
   D315       1.10407  -0.00000  -0.00015   0.00014  -0.00001   1.10407
   D316      -1.05945   0.00000   0.00009  -0.00000   0.00009  -1.05936
   D317       1.06529   0.00000   0.00006   0.00003   0.00009   1.06539
   D318      -3.13888   0.00000   0.00009   0.00001   0.00010  -3.13878
   D319       1.05260  -0.00000   0.00002   0.00001   0.00004   1.05264
   D320      -3.10584  -0.00000  -0.00001   0.00005   0.00004  -3.10580
   D321      -1.02683  -0.00000   0.00002   0.00003   0.00005  -1.02678
   D322       3.11515  -0.00000   0.00006  -0.00002   0.00004   3.11520
   D323      -1.04329  -0.00000   0.00003   0.00001   0.00004  -1.04324
   D324       1.03572  -0.00000   0.00006  -0.00000   0.00005   1.03577
   D325       0.19069  -0.00000   0.00149   0.00002   0.00150   0.19219
   D326      -2.94343   0.00000   0.00147   0.00009   0.00156  -2.94187
   D327      -3.13290  -0.00001  -0.00014   0.00023   0.00009  -3.13281
   D328       0.01616  -0.00001  -0.00015   0.00030   0.00015   0.01631
   D329      -0.22446   0.00001  -0.00168   0.00018  -0.00150  -0.22596
   D330       2.94323   0.00001  -0.00146   0.00003  -0.00143   2.94180
   D331       3.09769   0.00000  -0.00006  -0.00005  -0.00012   3.09758
   D332      -0.01780   0.00001   0.00016  -0.00020  -0.00005  -0.01785
   D333      -3.12366   0.00000  -0.00025   0.00034   0.00009  -3.12357
   D334       0.04114  -0.00000  -0.00042   0.00050   0.00008   0.04123
   D335       0.00970  -0.00000  -0.00024   0.00026   0.00003   0.00973
   D336      -3.10867  -0.00001  -0.00040   0.00042   0.00002  -3.10866
   D337      -0.00836   0.00000   0.00008  -0.00028  -0.00019  -0.00855
   D338       3.13103   0.00000   0.00015  -0.00026  -0.00011   3.13092
   D339       3.13994   0.00001   0.00007  -0.00021  -0.00014   3.13979
   D340      -0.00386   0.00001   0.00014  -0.00020  -0.00006  -0.00392
   D341       3.13874   0.00000   0.00024  -0.00007   0.00017   3.13891
   D342      -0.01733   0.00000   0.00005  -0.00006  -0.00001  -0.01734
   D343      -0.03161  -0.00000  -0.00000   0.00010   0.00009  -0.03152
   D344       3.09550  -0.00000  -0.00019   0.00010  -0.00009   3.09541
   D345       0.01240  -0.00000  -0.00010   0.00003  -0.00007   0.01232
   D346      -3.13438  -0.00000  -0.00014   0.00005  -0.00009  -3.13447
   D347      -3.10562   0.00000   0.00010  -0.00010  -0.00001  -3.10563
   D348       0.03079   0.00000   0.00006  -0.00008  -0.00002   0.03076
   D349      -0.00812   0.00000   0.00012  -0.00007   0.00005  -0.00807
   D350      -3.13861   0.00000   0.00004  -0.00007  -0.00003  -3.13864
   D351       3.11033   0.00000   0.00028  -0.00022   0.00006   3.11039
   D352      -0.02016   0.00000   0.00020  -0.00022  -0.00002  -0.02018
   D353      -0.00245  -0.00000   0.00001   0.00015   0.00016  -0.00229
   D354      -3.13778  -0.00000   0.00006   0.00012   0.00018  -3.13760
   D355      -3.14139   0.00000  -0.00007   0.00013   0.00006  -3.14133
   D356       0.00647   0.00000  -0.00002   0.00010   0.00008   0.00654
   D357      -0.00404  -0.00000   0.00009  -0.00007   0.00001  -0.00403
   D358       3.13377  -0.00000   0.00000   0.00008   0.00008   3.13385
   D359       3.13463  -0.00001   0.00018  -0.00005   0.00012   3.13475
   D360      -0.01075  -0.00000   0.00010   0.00010   0.00019  -0.01055
   D361       0.00823   0.00000   0.00003  -0.00008  -0.00005   0.00818
   D362      -3.13949  -0.00000  -0.00012  -0.00001  -0.00013  -3.13962
   D363      -3.11884   0.00000   0.00022  -0.00008   0.00013  -3.11871
   D364       0.01662   0.00000   0.00007  -0.00001   0.00006   0.01668
   D365      -0.00560  -0.00000  -0.00014   0.00004  -0.00010  -0.00570
   D366       3.13722   0.00000  -0.00011   0.00001  -0.00010   3.13712
   D367       3.12908  -0.00000  -0.00019   0.00007  -0.00012   3.12896
   D368      -0.01128   0.00000  -0.00016   0.00004  -0.00012  -0.01140
   D369       0.00054   0.00000   0.00010  -0.00019  -0.00009   0.00045
   D370      -3.11719   0.00000   0.00004  -0.00023  -0.00018  -3.11737
   D371       3.13079   0.00000   0.00018  -0.00019  -0.00001   3.13078
   D372       0.01306   0.00000   0.00012  -0.00023  -0.00011   0.01295
   D373       0.00563  -0.00000  -0.00020   0.00026   0.00006   0.00569
   D374       3.12412   0.00000  -0.00015   0.00030   0.00015   3.12427
   D375      -3.13213  -0.00000  -0.00012   0.00010  -0.00001  -3.13214
   D376      -0.01365  -0.00000  -0.00007   0.00014   0.00008  -0.01357
   D377       0.01580  -0.00000  -0.00011   0.00004  -0.00007   0.01573
   D378      -3.12895  -0.00000   0.00013   0.00007   0.00020  -3.12874
   D379      -3.11953   0.00000   0.00004  -0.00003   0.00001  -3.11951
   D380       0.01891   0.00000   0.00028   0.00001   0.00028   0.01919
   D381      -0.01688   0.00000   0.00016  -0.00002   0.00014  -0.01674
   D382       3.12777   0.00000  -0.00006  -0.00006  -0.00012   3.12765
   D383       3.12347  -0.00000   0.00013   0.00001   0.00014   3.12361
   D384      -0.01507   0.00000  -0.00009  -0.00002  -0.00012  -0.01519
   D385      -2.17385  -0.00000   0.00080  -0.00025   0.00055  -2.17329
   D386       2.01826  -0.00000   0.00085  -0.00027   0.00057   2.01884
   D387      -0.07652  -0.00000   0.00085  -0.00029   0.00056  -0.07596
   D388       0.99193  -0.00000   0.00074  -0.00029   0.00046   0.99239
   D389      -1.09915  -0.00000   0.00079  -0.00031   0.00048  -1.09867
   D390       3.08925  -0.00000   0.00080  -0.00034   0.00046   3.08972
   D391       0.00651   0.00000  -0.00144   0.00015  -0.00129   0.00522
   D392       2.09843   0.00000  -0.00146   0.00020  -0.00126   2.09716
   D393      -2.09126   0.00000  -0.00139   0.00009  -0.00130  -2.09256
   D394      -3.13827  -0.00000  -0.00120   0.00018  -0.00102  -3.13929
   D395      -1.04636  -0.00000  -0.00122   0.00023  -0.00099  -1.04735
   D396       1.04714   0.00000  -0.00115   0.00012  -0.00103   1.04611
   D397       3.13566  -0.00000   0.00021  -0.00012   0.00010   3.13576
   D398      -1.05751  -0.00000   0.00022  -0.00012   0.00010  -1.05740
   D399       1.04355  -0.00000   0.00019  -0.00011   0.00008   1.04364
   D400      -1.05894  -0.00000   0.00015  -0.00007   0.00009  -1.05885
   D401       1.03108  -0.00000   0.00016  -0.00007   0.00009   1.03118
   D402       3.13214  -0.00000   0.00013  -0.00006   0.00007   3.13222
   D403       0.99203   0.00000   0.00017  -0.00010   0.00007   0.99210
   D404       3.08205   0.00000   0.00018  -0.00010   0.00008   3.08213
   D405      -1.10007   0.00000   0.00015  -0.00009   0.00006  -1.10002
   D406      -1.04352   0.00000  -0.00003   0.00006   0.00003  -1.04349
   D407       1.05183   0.00000  -0.00000   0.00006   0.00006   1.05189
   D408      -3.13783   0.00000  -0.00001   0.00006   0.00005  -3.13778
   D409      -3.13914  -0.00000   0.00005   0.00004   0.00009  -3.13906
   D410      -1.04379  -0.00000   0.00007   0.00004   0.00011  -1.04368
   D411       1.04973  -0.00000   0.00006   0.00004   0.00011   1.04983
   D412       1.09569   0.00000  -0.00001   0.00010   0.00008   1.09578
   D413      -3.09214  -0.00000   0.00002   0.00009   0.00011  -3.09203
   D414      -0.99862  -0.00000   0.00001   0.00009   0.00010  -0.99852
   D415      -1.04180  -0.00000   0.00001  -0.00001  -0.00001  -1.04181
   D416       1.08315  -0.00000  -0.00003   0.00003   0.00001   1.08315
   D417      -3.12239  -0.00000  -0.00001   0.00002   0.00000  -3.12239
   D418       1.07365   0.00000  -0.00000  -0.00004  -0.00004   1.07361
   D419      -3.08459   0.00000  -0.00004   0.00001  -0.00003  -3.08462
   D420      -1.00694   0.00000  -0.00002  -0.00001  -0.00003  -1.00697
   D421       3.13743   0.00000   0.00002  -0.00006  -0.00004   3.13738
   D422      -1.02081  -0.00000  -0.00001  -0.00002  -0.00003  -1.02084
   D423       1.05684  -0.00000   0.00000  -0.00003  -0.00003   1.05681
   D424      -1.06876  -0.00000   0.00031  -0.00005   0.00026  -1.06850
   D425       1.05640   0.00000   0.00034  -0.00003   0.00031   1.05671
   D426       3.13558  -0.00000   0.00029  -0.00004   0.00025   3.13582
   D427       3.10966  -0.00000   0.00039  -0.00006   0.00033   3.11000
   D428      -1.04836   0.00000   0.00042  -0.00003   0.00039  -1.04797
   D429       1.03081   0.00000   0.00037  -0.00004   0.00032   1.03114
   D430       1.04366  -0.00000   0.00037  -0.00002   0.00035   1.04401
   D431      -3.11437   0.00000   0.00040   0.00000   0.00041  -3.11396
   D432      -1.03519   0.00000   0.00035  -0.00001   0.00034  -1.03485
   D433       1.05390   0.00000   0.00011  -0.00018  -0.00007   1.05383
   D434      -3.13565   0.00000   0.00015  -0.00018  -0.00004  -3.13568
   D435      -1.04258   0.00000   0.00013  -0.00016  -0.00003  -1.04261
   D436      -3.09046  -0.00000   0.00002  -0.00006  -0.00003  -3.09050
   D437      -0.99682  -0.00000   0.00006  -0.00006  -0.00000  -0.99683
   D438       1.09625  -0.00000   0.00004  -0.00004  -0.00000   1.09625
   D439      -1.04018  -0.00000  -0.00002  -0.00007  -0.00009  -1.04027
   D440       1.05346  -0.00000   0.00002  -0.00008  -0.00006   1.05340
   D441      -3.13665  -0.00000  -0.00000  -0.00005  -0.00006  -3.13671
   D442      -1.05314  -0.00000  -0.00026   0.00020  -0.00007  -1.05321
[...]
 Alpha virt. eigenvalues --    2.65353   2.65563   2.65589   2.65792   2.66052
 Alpha virt. eigenvalues --    2.66228   2.66739   2.66783   2.66998   2.67208
 Alpha virt. eigenvalues --    2.67452   2.67492   2.67547   2.67734   2.67851
 Alpha virt. eigenvalues --    2.68088   2.68340   2.68392   2.68765   2.68845
 Alpha virt. eigenvalues --    2.69443   2.69702   2.69797   2.69957   2.70278
 Alpha virt. eigenvalues --    2.70630   2.70809   2.71167   2.71389   2.71654
 Alpha virt. eigenvalues --    2.72136   2.72741   2.73207   2.74425   2.74954
 Alpha virt. eigenvalues --    2.75206   2.75466   2.75626   2.75758   2.75961
 Alpha virt. eigenvalues --    2.76076   2.76382   2.76527   2.76788   2.76971
 Alpha virt. eigenvalues --    2.77224   2.78284   2.78892   2.79456   2.79599
 Alpha virt. eigenvalues --    2.79842   2.79905   2.79981   2.80022   2.80124
 Alpha virt. eigenvalues --    2.80255   2.80292   2.80341   2.80417   2.80509
 Alpha virt. eigenvalues --    2.80720   2.80897   2.80950   2.81307   2.81608
 Alpha virt. eigenvalues --    2.81771   2.81975   2.82232   2.82492   2.82734
 Alpha virt. eigenvalues --    2.82909   2.83152   2.83528   2.83882   2.84655
 Alpha virt. eigenvalues --    2.84791   2.84993   2.85633   2.85828   2.86260
 Alpha virt. eigenvalues --    2.86453   2.86715   2.87065   2.88677   2.88905
 Alpha virt. eigenvalues --    2.89870   2.90344   2.90928   2.91279   2.91690
 Alpha virt. eigenvalues --    2.92216   2.92634   2.92685   2.92785   2.92866
 Alpha virt. eigenvalues --    2.92950   2.93152   2.93520   2.93588   2.93690
 Alpha virt. eigenvalues --    2.93807   2.93856   2.94037   2.94064   2.94270
 Alpha virt. eigenvalues --    2.94552   2.94645   2.94839   2.95146   2.95525
 Alpha virt. eigenvalues --    2.96469   2.97090   2.97855   2.98721   2.99194
 Alpha virt. eigenvalues --    2.99289   2.99494   2.99606   2.99686   2.99876
 Alpha virt. eigenvalues --    3.00087   3.00150   3.00415   3.00600   3.00805
 Alpha virt. eigenvalues --    3.01184   3.01904   3.02016   3.02320   3.02729
 Alpha virt. eigenvalues --    3.02804   3.03435   3.03477   3.04645   3.04897
 Alpha virt. eigenvalues --    3.05879   3.06874   3.07614   3.09274   3.09351
 Alpha virt. eigenvalues --    3.09614   3.09775   3.09892   3.10103   3.10476
 Alpha virt. eigenvalues --    3.14871   3.15817   3.16306   3.17599   3.18922
 Alpha virt. eigenvalues --    3.19301   3.21335   3.21817   3.22076   3.23427
 Alpha virt. eigenvalues --    3.23919   3.24175   3.24542   3.24572   3.24720
 Alpha virt. eigenvalues --    3.25398   3.25680   3.25789   3.27305   3.27490
 Alpha virt. eigenvalues --    3.27633   3.28821   3.29174   3.29750   3.29901
 Alpha virt. eigenvalues --    3.29941   3.30077   3.30240   3.30591   3.30665
 Alpha virt. eigenvalues --    3.30937   3.31272   3.31583   3.31962   3.32184
 Alpha virt. eigenvalues --    3.34056   3.34960   3.36116   3.36507   3.36897
 Alpha virt. eigenvalues --    3.37475   3.38445   3.40127   3.40489   3.41023
 Alpha virt. eigenvalues --    3.41719   3.42719   3.44060   3.44440   3.45064
 Alpha virt. eigenvalues --    3.46546   3.47548   3.47865   3.48032   3.48565
 Alpha virt. eigenvalues --    3.48572   3.48662   3.48911   3.49083   3.49272
 Alpha virt. eigenvalues --    3.49410   3.49797   3.49838   3.49950   3.50144
 Alpha virt. eigenvalues --    3.50208   3.50456   3.50750   3.50892   3.50930
 Alpha virt. eigenvalues --    3.51051   3.51149   3.51426   3.51560   3.51752
 Alpha virt. eigenvalues --    3.52097   3.52236   3.52464   3.52754   3.52940
 Alpha virt. eigenvalues --    3.55078   3.57411   3.57584   3.57820   3.58024
 Alpha virt. eigenvalues --    3.58186   3.58310   3.58731   3.59008   3.59142
 Alpha virt. eigenvalues --    3.60170   3.60560   3.60726   3.61049   3.61672
 Alpha virt. eigenvalues --    3.61892   3.65880   3.79486   3.79578   3.81713
 Alpha virt. eigenvalues --    3.87871   3.88215   3.88294   3.89925   3.94557
 Alpha virt. eigenvalues --    4.11688   4.15355   4.17482   4.18075   4.18583
 Alpha virt. eigenvalues --    4.19576   4.20366   4.22602   4.22999   4.24193
 Alpha virt. eigenvalues --    4.25056   4.25965   4.26063   4.26677   4.27269
 Alpha virt. eigenvalues --    4.27443   4.28529   4.29130   4.30106   4.30832
 Alpha virt. eigenvalues --    4.31418   4.32109   4.32998   4.34417   4.37009
 Alpha virt. eigenvalues --    4.37533   4.44065   4.44444   4.45231   4.45266
 Alpha virt. eigenvalues --    4.45553   4.45981   4.46526   4.46986   4.47310
 Alpha virt. eigenvalues --    4.48169   4.48650   4.51289   4.53003   4.54237
 Alpha virt. eigenvalues --    4.55524   4.56691   4.59228   4.59883   4.60387
 Alpha virt. eigenvalues --    4.60679   4.60777   4.61116   4.61177   4.61316
 Alpha virt. eigenvalues --    4.61541   4.61859   4.61994   4.62174   4.63662
 Alpha virt. eigenvalues --    4.65484   4.67005   4.67363   4.68008   4.68670
 Alpha virt. eigenvalues --    4.69734   4.69974   4.76873   4.78791   4.79352
 Alpha virt. eigenvalues --    4.79525   4.80369   4.80631   4.81273   4.84316
 Alpha virt. eigenvalues --    4.91450   4.92461   4.93988   4.96661   5.00914
 Alpha virt. eigenvalues --    5.02181   5.04162
          Condensed to atoms (all electrons):
 Mulliken charges:
               1
     1  C    0.318637
     2  C    0.326682
     3  C   -0.109552
     4  C    0.026409
     5  C   -0.154416
     6  C    0.044505
     7  C   -0.189114
     8  H    0.116846
     9  C   -0.209012
    10  C   -0.184926
    11  H    0.121728
    12  C   -0.207227
    13  C    0.116777
    14  H    0.119116
    15  H    0.118705
    16  C    0.119634
    17  H    0.117752
    18  H    0.124412
    19  C    0.176516
    20  C    0.215778
    21  C   -0.117712
    22  C   -0.229882
    23  C   -0.116730
    24  C    0.192409
    25  H    0.210121
    26  H    0.209466
    27  C   -0.066397
    28  C   -0.067833
    29  N   -0.709928
    30  C   -0.195281
    31  C   -0.126585
    32  C   -0.120986
    33  C   -0.138341
    34  H    0.185000
    35  C   -0.136515
    36  H    0.182628
    37  C   -0.127281
    38  H    0.157731
    39  H    0.158043
    40  H    0.155736
    41  O   -0.569141
    42  O   -0.572732
    43  C   -0.368002
    44  H    0.119234
    45  H    0.121738
    46  H    0.139284
    47  C   -0.361337
    48  H    0.118884
    49  H    0.132662
    50  H    0.123384
    51  C   -0.390383
    52  H    0.129630
    53  H    0.134067
    54  H    0.123230
    55  C   -0.385034
    56  H    0.124963
    57  H    0.129449
    58  H    0.125314
    59  C   -0.369803
    60  H    0.125155
    61  H    0.119912
    62  H    0.142389
    63  C   -0.364614
    64  H    0.120947
    65  H    0.128073
    66  H    0.131453
    67  S    1.190906
    68  N   -0.729069
    69  C    0.304782
    70  C    0.299422
    71  C   -0.146667
    72  C    0.020858
    73  C   -0.183281
    74  C    0.036100
    75  C   -0.170469
    76  H    0.133312
    77  C   -0.197898
    78  C   -0.180089
    79  H    0.139951
    80  C   -0.192232
    81  C    0.125648
    82  H    0.119738
    83  H    0.122367
    84  C    0.118719
    85  H    0.122735
    86  H    0.125078
    87  C   -0.073829
    88  C   -0.068728
    89  C   -0.363690
    90  C   -0.368467
    91  C   -0.382890
    92  C   -0.365809
    93  C   -0.363309
    94  C   -0.385389
    95  H    0.120870
    96  H    0.122108
    97  H    0.134716
    98  H    0.130514
    99  H    0.137436
   100  H    0.119688
   101  H    0.132090
   102  H    0.129538
   103  H    0.124617
   104  H    0.123588
   105  H    0.125790
   106  H    0.133505
   107  H    0.124022
   108  H    0.122715
   109  H    0.136568
   110  H    0.128032
   111  H    0.132152
   112  H    0.126805
   113  N   -0.756985
   114  C    0.316176
   115  C    0.322052
   116  C   -0.135189
   117  C    0.020763
   118  C   -0.157950
   119  C    0.018951
   120  C   -0.183522
   121  H    0.117447
   122  C   -0.198653
   123  C   -0.173343
   124  H    0.135178
   125  C   -0.196154
   126  C    0.121026
   127  H    0.114414
   128  H    0.124078
   129  C    0.122501
   130  H    0.120865
   131  H    0.123975
   132  C   -0.067217
   133  C   -0.067731
   134  C   -0.370025
   135  C   -0.361594
   136  C   -0.385670
   137  C   -0.386631
   138  C   -0.369550
   139  C   -0.363046
   140  H    0.121793
   141  H    0.123860
   142  H    0.141738
   143  H    0.134035
   144  H    0.125007
   145  H    0.122187
   146  H    0.129633
   147  H    0.127041
   148  H    0.126488
   149  H    0.129710
   150  H    0.131113
   151  H    0.125753
   152  H    0.123545
   153  H    0.120932
   154  H    0.144567
   155  H    0.122881
   156  H    0.135005
   157  H    0.122354
 Sum of Mulliken charges =  -0.00000
 Mulliken charges with hydrogens summed into heavy atoms:
               1
     1  C    0.318637
     2  C    0.326682
     3  C    0.007294
     4  C    0.026409
     5  C   -0.032688
     6  C    0.044505
     7  C   -0.069998
     9  C   -0.090306
    10  C   -0.067174
    12  C   -0.082815
    13  C    0.116777
    16  C    0.119634
    19  C    0.176516
    20  C    0.215778
    21  C    0.092409
    22  C   -0.229882
    23  C    0.092737
    24  C    0.192409
    27  C   -0.066397
    28  C   -0.067833
    29  N   -0.709928
    30  C   -0.195281
    31  C    0.058415
    32  C    0.061643
    33  C    0.019390
    35  C    0.021528
    37  C    0.028455
    41  O   -0.569141
    42  O   -0.572732
    43  C    0.012254
    47  C    0.013592
    51  C   -0.003456
    55  C   -0.005308
    59  C    0.017653
    63  C    0.015859
    67  S    1.190906
    68  N   -0.729069
    69  C    0.304782
    70  C    0.299422
    71  C   -0.013354
    72  C    0.020858
    73  C   -0.043330
    74  C    0.036100
    75  C   -0.050731
    77  C   -0.075532
    78  C   -0.057355
    80  C   -0.067154
    81  C    0.125648
    84  C    0.118719
    87  C   -0.073829
    88  C   -0.068728
    89  C    0.014004
    90  C    0.019172
    91  C    0.003356
    92  C    0.017073
    93  C    0.019995
    94  C    0.001601
   113  N   -0.756985
   114  C    0.316176
   115  C    0.322052
   116  C   -0.017741
   117  C    0.020763
   118  C   -0.022772
   119  C    0.018951
   120  C   -0.069108
   122  C   -0.074575
   123  C   -0.052478
   125  C   -0.072179
   126  C    0.121026
   129  C    0.122501
   132  C   -0.067217
   133  C   -0.067731
   134  C    0.017365
   135  C    0.019635
   136  C   -0.002509
   137  C   -0.000055
   138  C    0.019494
   139  C    0.017194
 Electronic spatial extent (au):  <R**2>=          63532.9690
 Charge=             -0.0000 electrons
 Dipole moment (field-independent basis, Debye):
    X=             -0.4992    Y=             -0.5426    Z=              5.0116  Tot=              5.0655
 Quadrupole moment (field-independent basis, Debye-Ang):
   XX=           -436.0893   YY=           -456.2091   ZZ=           -490.7187
   XY=            -13.6053   XZ=            -19.7761   YZ=             20.8769
 Traceless Quadrupole moment (field-independent basis, Debye-Ang):
   XX=             24.9164   YY=              4.7966   ZZ=            -29.7130
   XY=            -13.6053   XZ=            -19.7761   YZ=             20.8769
 Octapole moment (field-independent basis, Debye-Ang**2):
  XXX=            -54.6029  YYY=            -22.0388  ZZZ=            242.9062  XYY=            -45.6438
  XXY=             19.5648  XXZ=             60.0997  XZZ=            126.7416  YZZ=           -111.8852
  YYZ=             98.0842  XYZ=            -15.6528
 Hexadecapole moment (field-independent basis, Debye-Ang**3):
 XXXX=         -37273.1592 YYYY=         -27339.8387 ZZZZ=         -21304.0409 XXXY=           -353.2546
 XXXZ=           -278.3886 YYYX=           -358.2283 YYYZ=            211.2025 ZZZX=           -673.5561
 ZZZY=            757.6125 XXYY=         -10945.8502 XXZZ=         -10038.5303 YYZZ=          -8527.3956
 XXYZ=            143.0991 YYXZ=           -220.4001 ZZXY=            259.3155
 N-N= 1.438362628182D+04 E-N=-3.690670428151D+04  KE= 3.473422245641D+03
 Leave Link  601 at Sun Sep 22 20:51:28 2024, MaxMem=  2147483648 cpu:              30.5 elap:               3.7
 (Enter /apps/gaussian/g16/l9999.exe)

 Test job not archived.
 1\1\GINC-PMLP-HPCCLSAP02\FOpt\RwB97XD TDA-FC\6-31G(d,p)\C72H79N3O2S1\W
 ILLIAM1\22-Sep-2024\0\\#p opt wb97xd/6-31G** iop(3/107=0105700000,3/10
 8=0105700000) TDA=(singlets, nstates=4, root=2)\\Tuning input file gen
 erated by xtune with parameters: w01057\\0,1\C,0.8258997581,-0.8949197
 943,-0.336826602\C,-0.6648951314,-0.1317499426,1.1525749272\C,1.747265
 0913,-1.0141922756,-1.3789148097\C,0.5778215406,-1.9663765964,0.563495
 6974\C,-1.5316564113,0.6788883026,1.8812414392\C,-0.4060523605,-1.4713
 983506,1.523417165\C,2.4179463678,-2.2293404476,-1.5107194988\H,1.9516
 005566,-0.1823801326,-2.0369167719\C,1.2590803786,-3.1531593526,0.4108
 695279\C,-2.1705215235,0.1087966974,2.9841615428\H,-1.6874554803,1.714
 7831445,1.6126837813\C,-1.0512358385,-2.0099117711,2.617496303\C,2.201
 9018787,-3.3062406472,-0.6392198874\H,3.1392121049,-2.3184288676,-2.31
 0847221\H,1.0825401841,-3.9672849724,1.1048259653\C,-1.9614098957,-1.2
 224625695,3.368033678\H,-2.8484435252,0.7357109267,3.546812268\H,-0.85
 96281447,-3.0383795117,2.9034186699\C,0.0538633706,1.4973135639,-0.592
 0501556\C,-1.1849677046,1.9144680552,-1.167758752\C,-1.5706487917,3.22
 82122982,-1.1631203782\C,-0.7431964969,4.1990011124,-0.5196427589\C,0.
 5129735135,3.818212361,0.0261232729\C,0.9039403604,2.5067923707,-0.005
 098592\H,-2.4842183917,3.5363202227,-1.6579474986\H,1.1744394179,4.574
 1117346,0.4347066925\C,2.9743748145,-4.6269550029,-0.7529829826\C,-2.6
 790183723,-1.8554570124,4.568996952\N,0.0651919572,0.1910803252,0.0214
 404855\C,-2.3500158578,5.3628945666,1.4266046469\C,-3.6775504793,4.938
 7667129,1.3376383137\C,-1.6883086544,5.3953432674,2.6557142967\C,-4.34
 44528377,4.5341361228,2.4937712961\H,-4.1774745177,4.9503947914,0.3757
 889531\C,-2.3637771005,4.9906868452,3.8056951871\H,-0.6645367971,5.748
 6896378,2.7021007842\C,-3.6885278256,4.5547176673,3.7262437341\H,-5.38
 00717449,4.2157509877,2.4334583259\H,-1.858957422,5.0242988834,4.76556
 03281\H,-4.2124486456,4.2454318291,4.6247470151\O,-0.3557292925,6.6604
 864794,0.2877775345\O,-2.4403504952,6.1118041155,-1.0923507967\C,1.979
 5963898,-5.8068677279,-0.8500084943\H,2.5276875155,-6.7499570493,-0.93
 78807993\H,1.3382101925,-5.8825199303,0.0319959767\H,1.3345922076,-5.7
 044836442,-1.7267762588\C,3.8534891363,-4.7914858702,0.5100859094\H,4.
 4260099882,-5.7225634246,0.4515145519\H,4.5580149411,-3.9602758124,0.6
 039207343\H,3.2527110611,-4.8265176071,1.4232126573\C,3.8888423543,-4.
 6682855018,-1.9900808766\H,3.3217184396,-4.5476211021,-2.9181147898\H,
 4.6623436478,-3.8964928133,-1.9523540749\H,4.3958036502,-5.6361028909,
 -2.0367543229\C,-3.6514126119,-0.8779093821,5.2531033289\H,-3.13463751
 87,0.0003769324,5.6516296178\H,-4.4353233974,-0.5390912413,4.569072970
 5\H,-4.141204479,-1.3783940034,6.0930832883\C,-3.4892224225,-3.0808126
 49,4.0854844193\H,-2.8493354056,-3.8489317606,3.6428440876\H,-4.018744
 4593,-3.5372929475,4.9276130038\H,-4.2276364252,-2.785864781,3.3354601
 671\C,-1.6303325062,-2.305528006,5.6121135773\H,-2.1278753515,-2.76656
 66486,6.4711312464\H,-0.9311116633,-3.0388875801,5.2017468442\H,-1.049
 3108709,-1.4521798503,5.9726658028\S,-1.4367730342,5.7393005211,-0.086
 3421649\N,2.2009052328,2.092062054,0.4354202108\C,2.4726448721,1.43875
 96384,1.6369007043\C,3.2210773551,1.7741291782,-0.456519949\C,1.739386
 5213,1.4298556467,2.8229512519\C,3.6840502492,0.7239834719,1.526776737
 3\C,3.3678208555,2.1503232708,-1.7895583502\C,4.1699398413,0.941350670
 8,0.1789124358\C,2.2268565392,0.6699769585,3.8780633279\H,0.8202605054
 ,1.9966354296,2.9152197801\C,4.1561924079,-0.021149098,2.6122907281\C,
 4.4845099611,1.6809450908,-2.4770713868\H,2.6391298168,2.7922838534,-2
 .2712797409\C,5.2823523223,0.495127351,-0.5354114183\C,3.4303078403,-0
 .069011806,3.802453743\H,1.6505605106,0.6537493516,4.7976360831\H,5.08
 81084955,-0.5639920598,2.5077990389\C,5.4588058543,0.8557256103,-1.876
 18365\H,4.5982764896,1.9796418625,-3.5119826676\H,6.009671954,-0.13911
 53685,-0.037747373\C,3.8846427312,-0.8962255581,5.0176211414\C,6.70075
 01743,0.3564349181,-2.6383472397\C,4.0605935374,0.029429226,6.24248279
 09\C,2.8168401901,-1.9687084624,5.33122733\C,5.2225672666,-1.615066881
 9,4.7671496505\C,6.706933142,-1.1887899353,-2.6621072746\C,7.976367812
 2,0.8632258377,-1.9276282932\C,6.7368732759,0.8536609473,-4.0949737586
 \H,3.1274542128,0.5324938867,6.5104829177\H,4.3890594477,-0.5464699691
 ,7.114469024\H,4.8088786887,0.8012502549,6.0403349036\H,1.8489909494,-
 1.5181296755,5.5651157203\H,2.6765544312,-2.6353763041,4.474776185\H,3
 .1201220317,-2.5746418484,6.1920494215\H,5.1552254215,-2.3189096104,3.
 931491424\H,6.0301917445,-0.906941131,4.5576770161\H,5.5070054576,-2.1
 86251195,5.6561239931\H,7.5934983647,-1.562441361,-3.1856638581\H,6.71
 49566459,-1.6099919706,-1.6528709662\H,5.8218505497,-1.570252564,-3.18
 05256481\H,8.0428034602,0.4938710673,-0.9005703974\H,8.8721434891,0.52
 71061616,-2.4610346392\H,7.9901383709,1.9562578867,-1.8899639059\H,5.8
 702616382,0.5058356595,-4.6661210782\H,6.7705445281,1.9458539882,-4.15
 07014473\H,7.6332518449,0.4712278685,-4.5925699037\N,-2.0083340769,0.8
 909926193,-1.726002919\C,-3.2297866143,0.4643750924,-1.217901908\C,-1.
 6139190415,-0.0001522118,-2.7201547934\C,-4.0259800066,1.0267452581,-0
 .2221136462\C,-3.6193458374,-0.7273973472,-1.8762034967\C,-0.492200457
 3,0.0350973583,-3.5430673816\C,-2.5773600644,-1.0261410859,-2.84123759
 13\C,-5.2097564987,0.3725671753,0.1121648203\H,-3.7468887993,1.9542569
 907,0.2625425514\C,-4.8120840593,-1.3518060699,-1.5230575852\C,-0.3301
 30744,-0.9974006904,-4.4662256662\H,0.222965677,0.8459555682,-3.476584
 6449\C,-2.3874819809,-2.0425118515,-3.7746813705\C,-5.629310591,-0.814
 5332158,-0.5180797848\H,-5.8246001539,0.8171515221,0.8849891346\H,-5.1
 047520566,-2.2607753137,-2.0391869844\C,-1.2528942772,-2.0517352404,-4
 .5983343418\H,0.5455742712,-0.9659588341,-5.1027520182\H,-3.131102306,
 -2.8290331592,-3.8579406013\C,-6.9539670933,-1.5147188772,-0.165326218
 8\C,-1.0599824449,-3.1972644933,-5.6083890445\C,-6.6795268437,-2.98247
 74442,0.2332126156\C,-7.8863752545,-1.4845417785,-1.3981147577\C,-7.68
 36066186,-0.833002637,1.0064409824\C,0.2380017414,-3.0491582227,-6.422
 8772818\C,-0.9957343876,-4.5416889785,-4.8484037002\C,-2.2472833658,-3
 .2200794674,-6.5974320746\H,-7.6155545804,-3.4885428514,0.4923747492\H
 ,-6.2142021154,-3.5470844683,-0.5792235834\H,-6.0129824032,-3.03320089
 72,1.0987885092\H,-8.0944375707,-0.4546335796,-1.7022771992\H,-7.44071
 12945,-2.0007551042,-2.2530373839\H,-8.8394607829,-1.9744637754,-1.171
 1836405\H,-7.0733414595,-0.8259229186,1.9153045583\H,-7.9614264914,0.1
 984236086,0.7692483268\H,-8.6061540039,-1.3762315792,1.2320545165\H,0.
 24510655,-2.1282799047,-7.0139205308\H,1.1240232203,-3.053742324,-5.77
 9971315\H,0.3328319487,-3.8872885345,-7.1198465407\H,-1.9136407938,-4.
 7355305158,-4.286573099\H,-0.8524640758,-5.3720454192,-5.5482285098\H,
 -0.1634028246,-4.5436052681,-4.1385778482\H,-3.200043586,-3.3790942088
 ,-6.0848783157\H,-2.3160233246,-2.2744802036,-7.1429837709\H,-2.123469
 4931,-4.0281720672,-7.3263753098\\Version=ES64L-G16RevC.01\State=1-A\H
 F=-3503.7444304\RMSD=7.639e-09\RMSF=1.230e-06\Dipole=0.2323552,-5.9568
 464,1.6536723\PG=C01 [X(C72H79N3O2S1)]\\@


 It is also a good rule not to put too much confidence in
 experimental results until they have been confirmed by
 Theory.
                             -- Sir Arthur Eddington
 Job cpu time:      13 days 16 hours 42 minutes 37.4 seconds.
 Elapsed time:       1 days  8 hours 59 minutes 55.0 seconds.
 File lengths (MBytes):  RWF=  12068 Int=      0 D2E=      0 Chk=    563 Scr=      1
 Normal termination of Gaussian 16 at Sun Sep 22 20:51:33 2024.
