 Entering Gaussian System, Link 0=g16
 Initial command:
 /apps/gaussian/g16/l1.exe "/local/Gau-314432.inp" -scrdir="/local/"
 Entering Link 1 = /apps/gaussian/g16/l1.exe PID=    314433.
  
 Copyright (c) 1988-2019, Gaussian, Inc.  All Rights Reserved.
  
 This is part of the Gaussian(R) 16 program.  It is based on
 the Gaussian(R) 09 system (copyright 2009, Gaussian, Inc.),
 the Gaussian(R) 03 system (copyright 2003, Gaussian, Inc.),
 the Gaussian(R) 98 system (copyright 1998, Gaussian, Inc.),
 the Gaussian(R) 94 system (copyright 1995, Gaussian, Inc.),
 the Gaussian 92(TM) system (copyright 1992, Gaussian, Inc.),
 the Gaussian 90(TM) system (copyright 1990, Gaussian, Inc.),
 the Gaussian 88(TM) system (copyright 1988, Gaussian, Inc.),
 the Gaussian 86(TM) system (copyright 1986, Carnegie Mellon
 University), and the Gaussian 82(TM) system (copyright 1983,
 Carnegie Mellon University). Gaussian is a federally registered
 trademark of Gaussian, Inc.
  
 This software contains proprietary and confidential information,
 including trade secrets, belonging to Gaussian, Inc.
  
 This software is provided under written license and may be
 used, copied, transmitted, or stored only in accord with that
 written license.
  
 The following legend is applicable only to US Government
 contracts under FAR:
  
                    RESTRICTED RIGHTS LEGEND
  
 Use, reproduction and disclosure by the US Government is
 subject to restrictions as set forth in subparagraphs (a)
 and (c) of the Commercial Computer Software - Restricted
 Rights clause in FAR 52.227-19.
  
 Gaussian, Inc.
 340 Quinnipiac St., Bldg. 40, Wallingford CT 06492
  
  
 ---------------------------------------------------------------
 Warning -- This program may not be used in any manner that
 competes with the business of Gaussian, Inc. or will provide
 assistance to any competitor of Gaussian, Inc.  The licensee
 of this program is prohibited from giving any competitor of
 Gaussian, Inc. access to this program.  By using this program,
 the user acknowledges that Gaussian, Inc. is engaged in the
 business of creating and licensing software in the field of
 computational chemistry and represents and warrants to the
 licensee that it is not a competitor of Gaussian, Inc. and that
 it will not use this program in any manner prohibited above.
 ---------------------------------------------------------------
  

 Cite this work as:
 Gaussian 16, Revision C.01,
 M. J. Frisch, G. W. Trucks, H. B. Schlegel, G. E. Scuseria, 
 M. A. Robb, J. R. Cheeseman, G. Scalmani, V. Barone, 
 G. A. Petersson, H. Nakatsuji, X. Li, M. Caricato, A. V. Marenich, 
 J. Bloino, B. G. Janesko, R. Gomperts, B. Mennucci, H. P. Hratchian, 
 J. V. Ortiz, A. F. Izmaylov, J. L. Sonnenberg, D. Williams-Young, 
 F. Ding, F. Lipparini, F. Egidi, J. Goings, B. Peng, A. Petrone, 
 T. Henderson, D. Ranasinghe, V. G. Zakrzewski, J. Gao, N. Rega, 
 G. Zheng, W. Liang, M. Hada, M. Ehara, K. Toyota, R. Fukuda, 
 J. Hasegawa, M. Ishida, T. Nakajima, Y. Honda, O. Kitao, H. Nakai, 
 T. Vreven, K. Throssell, J. A. Montgomery, Jr., J. E. Peralta, 
 F. Ogliaro, M. J. Bearpark, J. J. Heyd, E. N. Brothers, K. N. Kudin, 
 V. N. Staroverov, T. A. Keith, R. Kobayashi, J. Normand, 
 K. Raghavachari, A. P. Rendell, J. C. Burant, S. S. Iyengar, 
 J. Tomasi, M. Cossi, J. M. Millam, M. Klene, C. Adamo, R. Cammi, 
 J. W. Ochterski, R. L. Martin, K. Morokuma, O. Farkas, 
 J. B. Foresman, and D. J. Fox, Gaussian, Inc., Wallingford CT, 2019.
 
 ******************************************
 Gaussian 16:  ES64L-G16RevC.01  3-Jul-2019
                 8-Aug-2024 
 ******************************************
 %chk=YZ-VIII-195.chk
 %nprocshared=16
 Will use up to   16 processors via shared memory.
 %mem=16GB
 ----------------------------------------------------------------------
 #p opt wB97XD/6-31G** iop(3/107=0136000000,3/108=0136000000) TDA=(sing
 lets, nstates=4, root=2)
 ----------------------------------------------------------------------
 1/18=20,19=15,26=3,38=1/1,3;
 2/9=110,12=2,17=6,18=5,40=1/2;
 3/5=1,6=6,7=101,11=9,25=1,30=1,71=1,74=-58,107=136000000,108=136000000/1,2,3,8;
 4//1;
 5/5=2,38=5/2;
 8/6=1,10=2,107=2,108=4/1;
 9/8=2,15=2,41=4,42=1,48=1/14;
 10/5=4,28=2/2;
 6/7=2,8=2,9=2,10=2/1;
 7/12=6,13=5,14=2/1,2,3,16;
 1/18=20,19=15,26=3/3(2);
 2/9=110/2;
 99//99;
 2/9=110/2;
 3/5=1,6=6,7=101,11=9,25=1,30=1,71=1,74=-58,107=136000000,108=136000000/1,2,3,8;
 4/5=5,16=3,69=1/1;
 5/5=2,38=5/2;
 8/6=1,10=2,107=2,108=4/1;
 9/8=2,15=2,41=4,42=1,48=1,49=4/14;
 10/5=4,28=2/2;
 7/12=6,13=5,14=2/1,2,3,16;
 1/18=20,19=15,26=3/3(-8);
 2/9=110/2;
 6/7=2,8=2,9=2,10=2/1;
 99/9=10/99;
 Leave Link    1 at Thu Aug  8 12:56:40 2024, MaxMem=  2147483648 cpu:               0.6 elap:               0.1
 (Enter /apps/gaussian/g16/l101.exe)
 ------------------------------------------------------------
 Tuning input file generated by xtune with parameters: w01360
 ------------------------------------------------------------
 Symbolic Z-matrix:
 Charge =  0 Multiplicity = 1
 6                    -0.2924   -1.32713   0.33802 
 6                     0.2757   -0.34572  -0.50775 
 6                     1.59011  -0.50554  -0.94596 
 6                     2.33152  -1.60863  -0.54178 
 6                     1.77771  -2.5967    0.26579 
 6                     0.46395  -2.44893   0.69367 
 16                    4.05046  -1.72241  -1.04371 
 8                     4.15738  -1.18413  -2.39939 
 1                     2.01437   0.22825  -1.62201 
 1                     2.37116  -3.45607   0.55484 
 1                     0.01205  -3.18892   1.34474 
 7                    -0.42559   0.81293  -0.89451 
 6                    -1.68916   0.8715   -1.49005 
 6                    -0.02551   2.11545  -0.5767 
 6                    -2.46066  -0.16089  -2.0188 
 6                    -2.10897   2.21709  -1.53984 
 6                     1.14085   2.55198   0.05245 
 6                    -1.047     3.0121   -0.95761 
 6                    -3.69643   0.17353  -2.55967 
 1                    -2.11955  -1.18903  -2.00597 
 6                    -3.35068   2.53043  -2.0976 
 6                     1.2743    3.91786   0.28343 
 1                     1.91684   1.85792   0.35722 
 6                    -0.88737   4.37813  -0.71692 
 6                    -4.14281   1.50323  -2.59569 
 1                    -4.32444  -0.61426  -2.96155 
 1                    -3.68946   3.56051  -2.14028 
 6                     0.27517   4.82489  -0.09838 
 1                     2.17248   4.28444   0.76983 
 1                    -1.66443   5.07944  -1.00327 
 1                    -5.11276   1.73002  -3.02503 
 1                     0.41151   5.88374   0.09353 
 7                    -1.61139  -1.21599   0.81983 
 6                    -2.643    -2.11776   0.53574 
 6                    -2.15325  -0.12972   1.51433 
 6                    -2.59399  -3.32221  -0.16601 
 6                    -3.85474  -1.59808   1.03964 
 6                    -1.50677   0.98155   2.0511 
 6                    -3.54132  -0.32933   1.66449 
 6                    -3.78902  -4.0134   -0.34217 
 1                    -1.66321  -3.70597  -0.5692 
 6                    -5.03993  -2.31186   0.8518 
 6                    -2.28935   1.92611   2.70467 
 1                    -0.43575   1.11586   1.95846 
 6                    -4.30594   0.62853   2.33433 
 6                    -5.0003   -3.51899   0.16296 
 1                    -3.77935  -4.95389  -0.88322 
 1                    -5.97941  -1.92388   1.23193 
 6                    -3.67535   1.75776   2.8425 
 1                    -1.81294   2.81028   3.11443 
 1                    -5.37563   0.49119   2.45473 
 1                    -5.91388  -4.08333   0.01003 
 1                    -4.25721   2.51426   3.35798 
 8                     4.51531  -3.06845  -0.70809 
 6                     4.84504  -0.56065   0.06817 
 6                     4.99114   0.76696  -0.33128 
 6                     5.26703  -0.99953   1.32159 
 6                     5.56412   1.67635   0.55495 
 1                     4.67838   1.07024  -1.32413 
 6                     5.84088  -0.08104   2.19719 
 1                     5.15915  -2.04359   1.59317 
 6                     5.98357   1.25341   1.81638 
 1                     5.68933   2.71164   0.25678 
 1                     6.17973  -0.40789   3.17423 
 1                     6.43005   1.96505   2.50289 
 
 ITRead=  0  0  0  0  0  0  0  0  0  0  0  0  0  0  0  0  0  0  0  0
 ITRead=  0  0  0  0  0  0  0  0  0  0  0  0  0  0  0  0  0  0  0  0
 ITRead=  0  0  0  0  0  0  0  0  0  0  0  0  0  0  0  0  0  0  0  0
 ITRead=  0  0  0  0  0
 MicOpt= -1 -1 -1 -1 -1 -1 -1 -1 -1 -1 -1 -1 -1 -1 -1 -1 -1 -1 -1 -1
 MicOpt= -1 -1 -1 -1 -1 -1 -1 -1 -1 -1 -1 -1 -1 -1 -1 -1 -1 -1 -1 -1
 MicOpt= -1 -1 -1 -1 -1 -1 -1 -1 -1 -1 -1 -1 -1 -1 -1 -1 -1 -1 -1 -1
 MicOpt= -1 -1 -1 -1 -1
 NAtoms=     65 NQM=       65 NQMF=       0 NMMI=      0 NMMIF=      0
                NMic=       0 NMicF=      0.
                    Isotopes and Nuclear Properties:
 (Nuclear quadrupole moments (NQMom) in fm**2, nuclear magnetic moments (NMagM)
  in nuclear magnetons)

  Atom         1           2           3           4           5           6           7           8           9          10
 IAtWgt=          12          12          12          12          12          12          32          16           1           1
 AtmWgt=  12.0000000  12.0000000  12.0000000  12.0000000  12.0000000  12.0000000  31.9720718  15.9949146   1.0078250   1.0078250
 NucSpn=           0           0           0           0           0           0           0           0           1           1
 AtZEff=  -0.0000000  -0.0000000  -0.0000000  -0.0000000  -0.0000000  -0.0000000  -0.0000000  -0.0000000  -0.0000000  -0.0000000
 NQMom=    0.0000000   0.0000000   0.0000000   0.0000000   0.0000000   0.0000000   0.0000000   0.0000000   0.0000000   0.0000000
 NMagM=    0.0000000   0.0000000   0.0000000   0.0000000   0.0000000   0.0000000   0.0000000   0.0000000   2.7928460   2.7928460
 AtZNuc=   6.0000000   6.0000000   6.0000000   6.0000000   6.0000000   6.0000000  16.0000000   8.0000000   1.0000000   1.0000000

  Atom        11          12          13          14          15          16          17          18          19          20
 IAtWgt=           1          14          12          12          12          12          12          12          12           1
 AtmWgt=   1.0078250  14.0030740  12.0000000  12.0000000  12.0000000  12.0000000  12.0000000  12.0000000  12.0000000   1.0078250
 NucSpn=           1           2           0           0           0           0           0           0           0           1
 AtZEff=  -0.0000000  -0.0000000  -0.0000000  -0.0000000  -0.0000000  -0.0000000  -0.0000000  -0.0000000  -0.0000000  -0.0000000
 NQMom=    0.0000000   2.0440000   0.0000000   0.0000000   0.0000000   0.0000000   0.0000000   0.0000000   0.0000000   0.0000000
 NMagM=    2.7928460   0.4037610   0.0000000   0.0000000   0.0000000   0.0000000   0.0000000   0.0000000   0.0000000   2.7928460
 AtZNuc=   1.0000000   7.0000000   6.0000000   6.0000000   6.0000000   6.0000000   6.0000000   6.0000000   6.0000000   1.0000000

  Atom        21          22          23          24          25          26          27          28          29          30
 IAtWgt=          12          12           1          12          12           1           1          12           1           1
 AtmWgt=  12.0000000  12.0000000   1.0078250  12.0000000  12.0000000   1.0078250   1.0078250  12.0000000   1.0078250   1.0078250
 NucSpn=           0           0           1           0           0           1           1           0           1           1
 AtZEff=  -0.0000000  -0.0000000  -0.0000000  -0.0000000  -0.0000000  -0.0000000  -0.0000000  -0.0000000  -0.0000000  -0.0000000
 NQMom=    0.0000000   0.0000000   0.0000000   0.0000000   0.0000000   0.0000000   0.0000000   0.0000000   0.0000000   0.0000000
 NMagM=    0.0000000   0.0000000   2.7928460   0.0000000   0.0000000   2.7928460   2.7928460   0.0000000   2.7928460   2.7928460
 AtZNuc=   6.0000000   6.0000000   1.0000000   6.0000000   6.0000000   1.0000000   1.0000000   6.0000000   1.0000000   1.0000000

  Atom        31          32          33          34          35          36          37          38          39          40
 IAtWgt=           1           1          14          12          12          12          12          12          12          12
 AtmWgt=   1.0078250   1.0078250  14.0030740  12.0000000  12.0000000  12.0000000  12.0000000  12.0000000  12.0000000  12.0000000
 NucSpn=           1           1           2           0           0           0           0           0           0           0
 AtZEff=  -0.0000000  -0.0000000  -0.0000000  -0.0000000  -0.0000000  -0.0000000  -0.0000000  -0.0000000  -0.0000000  -0.0000000
 NQMom=    0.0000000   0.0000000   2.0440000   0.0000000   0.0000000   0.0000000   0.0000000   0.0000000   0.0000000   0.0000000
 NMagM=    2.7928460   2.7928460   0.4037610   0.0000000   0.0000000   0.0000000   0.0000000   0.0000000   0.0000000   0.0000000
 AtZNuc=   1.0000000   1.0000000   7.0000000   6.0000000   6.0000000   6.0000000   6.0000000   6.0000000   6.0000000   6.0000000

  Atom        41          42          43          44          45          46          47          48          49          50
 IAtWgt=           1          12          12           1          12          12           1           1          12           1
 AtmWgt=   1.0078250  12.0000000  12.0000000   1.0078250  12.0000000  12.0000000   1.0078250   1.0078250  12.0000000   1.0078250
 NucSpn=           1           0           0           1           0           0           1           1           0           1
 AtZEff=  -0.0000000  -0.0000000  -0.0000000  -0.0000000  -0.0000000  -0.0000000  -0.0000000  -0.0000000  -0.0000000  -0.0000000
 NQMom=    0.0000000   0.0000000   0.0000000   0.0000000   0.0000000   0.0000000   0.0000000   0.0000000   0.0000000   0.0000000
 NMagM=    2.7928460   0.0000000   0.0000000   2.7928460   0.0000000   0.0000000   2.7928460   2.7928460   0.0000000   2.7928460
 AtZNuc=   1.0000000   6.0000000   6.0000000   1.0000000   6.0000000   6.0000000   1.0000000   1.0000000   6.0000000   1.0000000

  Atom        51          52          53          54          55          56          57          58          59          60
 IAtWgt=           1           1           1          16          12          12          12          12           1          12
 AtmWgt=   1.0078250   1.0078250   1.0078250  15.9949146  12.0000000  12.0000000  12.0000000  12.0000000   1.0078250  12.0000000
 NucSpn=           1           1           1           0           0           0           0           0           1           0
 AtZEff=  -0.0000000  -0.0000000  -0.0000000  -0.0000000  -0.0000000  -0.0000000  -0.0000000  -0.0000000  -0.0000000  -0.0000000
 NQMom=    0.0000000   0.0000000   0.0000000   0.0000000   0.0000000   0.0000000   0.0000000   0.0000000   0.0000000   0.0000000
 NMagM=    2.7928460   2.7928460   2.7928460   0.0000000   0.0000000   0.0000000   0.0000000   0.0000000   2.7928460   0.0000000
 AtZNuc=   1.0000000   1.0000000   1.0000000   8.0000000   6.0000000   6.0000000   6.0000000   6.0000000   1.0000000   6.0000000

  Atom        61          62          63          64          65
 IAtWgt=           1          12           1           1           1
 AtmWgt=   1.0078250  12.0000000   1.0078250   1.0078250   1.0078250
 NucSpn=           1           0           1           1           1
 AtZEff=  -0.0000000  -0.0000000  -0.0000000  -0.0000000  -0.0000000
 NQMom=    0.0000000   0.0000000   0.0000000   0.0000000   0.0000000
 NMagM=    2.7928460   0.0000000   2.7928460   2.7928460   2.7928460
 AtZNuc=   1.0000000   6.0000000   1.0000000   1.0000000   1.0000000
 Leave Link  101 at Thu Aug  8 12:56:40 2024, MaxMem=  2147483648 cpu:               7.3 elap:               0.8
 (Enter /apps/gaussian/g16/l103.exe)

 GradGradGradGradGradGradGradGradGradGradGradGradGradGradGradGradGradGrad
 Berny optimization.
 Initialization pass.
                           ----------------------------
                           !    Initial Parameters    !
                           ! (Angstroms and Degrees)  !
 --------------------------                            --------------------------
 ! Name  Definition              Value          Derivative Info.                !
 --------------------------------------------------------------------------------
 ! R1    R(1,2)                  1.4146         estimate D2E/DX2                !
 ! R2    R(1,6)                  1.3989         estimate D2E/DX2                !
 ! R3    R(1,33)                 1.4086         estimate D2E/DX2                !
 ! R4    R(2,3)                  1.3947         estimate D2E/DX2                !
 ! R5    R(2,12)                 1.4085         estimate D2E/DX2                !
 ! R6    R(3,4)                  1.3892         estimate D2E/DX2                !
 ! R7    R(3,9)                  1.0842         estimate D2E/DX2                !
 ! R8    R(4,5)                  1.3911         estimate D2E/DX2                !
 ! R9    R(4,7)                  1.7943         estimate D2E/DX2                !
 ! R10   R(5,6)                  1.3896         estimate D2E/DX2                !
 ! R11   R(5,10)                 1.0836         estimate D2E/DX2                !
 ! R12   R(6,11)                 1.0843         estimate D2E/DX2                !
 ! R13   R(7,8)                  1.4625         estimate D2E/DX2                !
 ! R14   R(7,54)                 1.4631         estimate D2E/DX2                !
 ! R15   R(7,55)                 1.7937         estimate D2E/DX2                !
 ! R16   R(12,13)                1.3981         estimate D2E/DX2                !
 ! R17   R(12,14)                1.3992         estimate D2E/DX2                !
 ! R18   R(13,15)                1.3931         estimate D2E/DX2                !
 ! R19   R(13,16)                1.4104         estimate D2E/DX2                !
 ! R20   R(14,17)                1.3953         estimate D2E/DX2                !
 ! R21   R(14,18)                1.4116         estimate D2E/DX2                !
 ! R22   R(15,19)                1.3898         estimate D2E/DX2                !
 ! R23   R(15,20)                1.0833         estimate D2E/DX2                !
 ! R24   R(16,18)                1.4487         estimate D2E/DX2                !
 ! R25   R(16,21)                1.3968         estimate D2E/DX2                !
 ! R26   R(17,22)                1.3917         estimate D2E/DX2                !
 ! R27   R(17,23)                1.0848         estimate D2E/DX2                !
 ! R28   R(18,24)                1.3962         estimate D2E/DX2                !
 ! R29   R(19,25)                1.4031         estimate D2E/DX2                !
 ! R30   R(19,26)                1.0847         estimate D2E/DX2                !
 ! R31   R(21,25)                1.3895         estimate D2E/DX2                !
 ! R32   R(21,27)                1.0852         estimate D2E/DX2                !
 ! R33   R(22,28)                1.4024         estimate D2E/DX2                !
 ! R34   R(22,29)                1.0852         estimate D2E/DX2                !
 ! R35   R(24,28)                1.3906         estimate D2E/DX2                !
 ! R36   R(24,30)                1.0852         estimate D2E/DX2                !
 ! R37   R(25,31)                1.0847         estimate D2E/DX2                !
 ! R38   R(28,32)                1.0847         estimate D2E/DX2                !
 ! R39   R(33,34)                1.3993         estimate D2E/DX2                !
 ! R40   R(33,35)                1.3985         estimate D2E/DX2                !
 ! R41   R(34,36)                1.3948         estimate D2E/DX2                !
 ! R42   R(34,37)                1.4115         estimate D2E/DX2                !
 ! R43   R(35,38)                1.3932         estimate D2E/DX2                !
 ! R44   R(35,39)                1.4104         estimate D2E/DX2                !
 ! R45   R(36,40)                1.3917         estimate D2E/DX2                !
 ! R46   R(36,41)                1.0845         estimate D2E/DX2                !
 ! R47   R(37,39)                1.4486         estimate D2E/DX2                !
 ! R48   R(37,42)                1.3962         estimate D2E/DX2                !
 ! R49   R(38,43)                1.3899         estimate D2E/DX2                !
 ! R50   R(38,44)                1.0834         estimate D2E/DX2                !
 ! R51   R(39,45)                1.3967         estimate D2E/DX2                !
 ! R52   R(40,46)                1.4024         estimate D2E/DX2                !
 ! R53   R(40,47)                1.0851         estimate D2E/DX2                !
 ! R54   R(42,46)                1.3904         estimate D2E/DX2                !
 ! R55   R(42,48)                1.0852         estimate D2E/DX2                !
 ! R56   R(43,49)                1.403          estimate D2E/DX2                !
 ! R57   R(43,50)                1.0847         estimate D2E/DX2                !
 ! R58   R(45,49)                1.3896         estimate D2E/DX2                !
 ! R59   R(45,51)                1.0852         estimate D2E/DX2                !
 ! R60   R(46,52)                1.0847         estimate D2E/DX2                !
 ! R61   R(49,53)                1.0847         estimate D2E/DX2                !
 ! R62   R(55,56)                1.3941         estimate D2E/DX2                !
 ! R63   R(55,57)                1.3935         estimate D2E/DX2                !
 ! R64   R(56,58)                1.3931         estimate D2E/DX2                !
 ! R65   R(56,59)                1.0842         estimate D2E/DX2                !
 ! R66   R(57,60)                1.3927         estimate D2E/DX2                !
 ! R67   R(57,61)                1.0842         estimate D2E/DX2                !
 ! R68   R(58,62)                1.395          estimate D2E/DX2                !
 ! R69   R(58,63)                1.0846         estimate D2E/DX2                !
 ! R70   R(60,62)                1.395          estimate D2E/DX2                !
 ! R71   R(60,64)                1.0846         estimate D2E/DX2                !
 ! R72   R(62,65)                1.0849         estimate D2E/DX2                !
 ! A1    A(2,1,6)              119.4189         estimate D2E/DX2                !
 ! A2    A(2,1,33)             121.7215         estimate D2E/DX2                !
 ! A3    A(6,1,33)             118.8534         estimate D2E/DX2                !
 ! A4    A(1,2,3)              119.1314         estimate D2E/DX2                !
 ! A5    A(1,2,12)             122.3377         estimate D2E/DX2                !
 ! A6    A(3,2,12)             118.5034         estimate D2E/DX2                !
 ! A7    A(2,3,4)              120.1683         estimate D2E/DX2                !
 ! A8    A(2,3,9)              119.1532         estimate D2E/DX2                !
 ! A9    A(4,3,9)              120.663          estimate D2E/DX2                !
 ! A10   A(3,4,5)              121.3611         estimate D2E/DX2                !
 ! A11   A(3,4,7)              118.7011         estimate D2E/DX2                !
 ! A12   A(5,4,7)              119.9161         estimate D2E/DX2                !
 ! A13   A(4,5,6)              118.6601         estimate D2E/DX2                !
 ! A14   A(4,5,10)             120.0074         estimate D2E/DX2                !
 ! A15   A(6,5,10)             121.3309         estimate D2E/DX2                !
 ! A16   A(1,6,5)              121.2093         estimate D2E/DX2                !
 ! A17   A(1,6,11)             118.3328         estimate D2E/DX2                !
 ! A18   A(5,6,11)             120.421          estimate D2E/DX2                !
 ! A19   A(4,7,8)              107.8175         estimate D2E/DX2                !
 ! A20   A(4,7,54)             107.37           estimate D2E/DX2                !
 ! A21   A(4,7,55)             102.1164         estimate D2E/DX2                !
 ! A22   A(8,7,54)             121.8718         estimate D2E/DX2                !
 ! A23   A(8,7,55)             107.6875         estimate D2E/DX2                !
 ! A24   A(54,7,55)            108.2364         estimate D2E/DX2                !
 ! A25   A(2,12,13)            126.9711         estimate D2E/DX2                !
 ! A26   A(2,12,14)            124.1291         estimate D2E/DX2                !
 ! A27   A(13,12,14)           108.4322         estimate D2E/DX2                !
 ! A28   A(12,13,15)           129.1354         estimate D2E/DX2                !
 ! A29   A(12,13,16)           108.9058         estimate D2E/DX2                !
 ! A30   A(15,13,16)           121.9228         estimate D2E/DX2                !
 ! A31   A(12,14,17)           129.2502         estimate D2E/DX2                !
 ! A32   A(12,14,18)           108.8521         estimate D2E/DX2                !
 ! A33   A(17,14,18)           121.8622         estimate D2E/DX2                !
 ! A34   A(13,15,19)           117.5055         estimate D2E/DX2                !
 ! A35   A(13,15,20)           121.6327         estimate D2E/DX2                !
 ! A36   A(19,15,20)           120.8605         estimate D2E/DX2                !
 ! A37   A(13,16,18)           106.9272         estimate D2E/DX2                !
 ! A38   A(13,16,21)           119.5185         estimate D2E/DX2                !
 ! A39   A(18,16,21)           133.5517         estimate D2E/DX2                !
 ! A40   A(14,17,22)           117.5201         estimate D2E/DX2                !
 ! A41   A(14,17,23)           121.6343         estimate D2E/DX2                !
 ! A42   A(22,17,23)           120.845          estimate D2E/DX2                !
 ! A43   A(14,18,16)           106.8779         estimate D2E/DX2                !
 ! A44   A(14,18,24)           119.487          estimate D2E/DX2                !
 ! A45   A(16,18,24)           133.6287         estimate D2E/DX2                !
 ! A46   A(15,19,25)           121.3937         estimate D2E/DX2                !
 ! A47   A(15,19,26)           118.9635         estimate D2E/DX2                !
 ! A48   A(25,19,26)           119.6428         estimate D2E/DX2                !
 ! A49   A(16,21,25)           118.9523         estimate D2E/DX2                !
 ! A50   A(16,21,27)           120.4077         estimate D2E/DX2                !
 ! A51   A(25,21,27)           120.64           estimate D2E/DX2                !
 ! A52   A(17,22,28)           121.4176         estimate D2E/DX2                !
 ! A53   A(17,22,29)           119.0313         estimate D2E/DX2                !
 ! A54   A(28,22,29)           119.5511         estimate D2E/DX2                !
 ! A55   A(18,24,28)           119.1167         estimate D2E/DX2                !
 ! A56   A(18,24,30)           120.3261         estimate D2E/DX2                !
 ! A57   A(28,24,30)           120.5558         estimate D2E/DX2                !
 ! A58   A(19,25,21)           120.6653         estimate D2E/DX2                !
 ! A59   A(19,25,31)           119.5243         estimate D2E/DX2                !
 ! A60   A(21,25,31)           119.8083         estimate D2E/DX2                !
 ! A61   A(22,28,24)           120.5918         estimate D2E/DX2                !
 ! A62   A(22,28,32)           119.5797         estimate D2E/DX2                !
 ! A63   A(24,28,32)           119.8284         estimate D2E/DX2                !
 ! A64   A(1,33,34)            124.7519         estimate D2E/DX2                !
 ! A65   A(1,33,35)            126.4358         estimate D2E/DX2                !
 ! A66   A(34,33,35)           108.4048         estimate D2E/DX2                !
 ! A67   A(33,34,36)           129.2506         estimate D2E/DX2                !
 ! A68   A(33,34,37)           108.8532         estimate D2E/DX2                !
 ! A69   A(36,34,37)           121.8501         estimate D2E/DX2                !
 ! A70   A(33,35,38)           129.1307         estimate D2E/DX2                !
 ! A71   A(33,35,39)           108.921          estimate D2E/DX2                !
 ! A72   A(38,35,39)           121.9077         estimate D2E/DX2                !
 ! A73   A(34,36,40)           117.5402         estimate D2E/DX2                !
 ! A74   A(34,36,41)           121.5164         estimate D2E/DX2                !
 ! A75   A(40,36,41)           120.9412         estimate D2E/DX2                !
 ! A76   A(34,37,39)           106.9012         estimate D2E/DX2                !
 ! A77   A(34,37,42)           119.5032         estimate D2E/DX2                !
 ! A78   A(39,37,42)           133.5867         estimate D2E/DX2                !
 ! A79   A(35,38,43)           117.5152         estimate D2E/DX2                !
 ! A80   A(35,38,44)           121.6458         estimate D2E/DX2                !
 ! A81   A(43,38,44)           120.8366         estimate D2E/DX2                !
 ! A82   A(35,39,37)           106.9162         estimate D2E/DX2                !
 ! A83   A(35,39,45)           119.5239         estimate D2E/DX2                !
 ! A84   A(37,39,45)           133.5573         estimate D2E/DX2                !
 ! A85   A(36,40,46)           121.3967         estimate D2E/DX2                !
 ! A86   A(36,40,47)           119.0737         estimate D2E/DX2                !
 ! A87   A(46,40,47)           119.5296         estimate D2E/DX2                !
 ! A88   A(37,42,46)           119.0975         estimate D2E/DX2                !
 ! A89   A(37,42,48)           120.3295         estimate D2E/DX2                !
 ! A90   A(46,42,48)           120.571          estimate D2E/DX2                !
 ! A91   A(38,43,49)           121.3918         estimate D2E/DX2                !
 ! A92   A(38,43,50)           118.9656         estimate D2E/DX2                !
 ! A93   A(49,43,50)           119.6427         estimate D2E/DX2                !
 ! A94   A(39,45,49)           118.9632         estimate D2E/DX2                !
 ! A95   A(39,45,51)           120.4006         estimate D2E/DX2                !
 ! A96   A(49,45,51)           120.6362         estimate D2E/DX2                !
 ! A97   A(40,46,42)           120.6058         estimate D2E/DX2                !
 ! A98   A(40,46,52)           119.5555         estimate D2E/DX2                !
 ! A99   A(42,46,52)           119.8382         estimate D2E/DX2                !
 ! A100  A(43,49,45)           120.6559         estimate D2E/DX2                !
 ! A101  A(43,49,53)           119.5337         estimate D2E/DX2                !
 ! A102  A(45,49,53)           119.8087         estimate D2E/DX2                !
 ! A103  A(7,55,56)            119.0527         estimate D2E/DX2                !
 ! A104  A(7,55,57)            119.1925         estimate D2E/DX2                !
 ! A105  A(56,55,57)           121.7315         estimate D2E/DX2                !
 ! A106  A(55,56,58)           118.8477         estimate D2E/DX2                !
 ! A107  A(55,56,59)           119.9037         estimate D2E/DX2                !
 ! A108  A(58,56,59)           121.2377         estimate D2E/DX2                !
 ! A109  A(55,57,60)           118.8548         estimate D2E/DX2                !
 ! A110  A(55,57,61)           119.8992         estimate D2E/DX2                !
 ! A111  A(60,57,61)           121.2393         estimate D2E/DX2                !
 ! A112  A(56,58,62)           120.0666         estimate D2E/DX2                !
 ! A113  A(56,58,63)           119.7152         estimate D2E/DX2                !
 ! A114  A(62,58,63)           120.2165         estimate D2E/DX2                !
 ! A115  A(57,60,62)           120.0915         estimate D2E/DX2                !
 ! A116  A(57,60,64)           119.7601         estimate D2E/DX2                !
 ! A117  A(62,60,64)           120.1479         estimate D2E/DX2                !
 ! A118  A(58,62,60)           120.4043         estimate D2E/DX2                !
 ! A119  A(58,62,65)           119.8054         estimate D2E/DX2                !
 ! A120  A(60,62,65)           119.7888         estimate D2E/DX2                !
 ! D1    D(6,1,2,3)             -1.3445         estimate D2E/DX2                !
 ! D2    D(6,1,2,12)          -179.4104         estimate D2E/DX2                !
 ! D3    D(33,1,2,3)           179.5669         estimate D2E/DX2                !
 ! D4    D(33,1,2,12)            1.5009         estimate D2E/DX2                !
 ! D5    D(2,1,6,5)              2.0498         estimate D2E/DX2                !
 ! D6    D(2,1,6,11)           179.8504         estimate D2E/DX2                !
 ! D7    D(33,1,6,5)          -178.8353         estimate D2E/DX2                !
 ! D8    D(33,1,6,11)           -1.0347         estimate D2E/DX2                !
 ! D9    D(2,1,33,34)          117.4375         estimate D2E/DX2                !
 ! D10   D(2,1,33,35)          -54.3726         estimate D2E/DX2                !
 ! D11   D(6,1,33,34)          -61.6561         estimate D2E/DX2                !
 ! D12   D(6,1,33,35)          126.5337         estimate D2E/DX2                !
 ! D13   D(1,2,3,4)             -0.7042         estimate D2E/DX2                !
 ! D14   D(1,2,3,9)            177.872          estimate D2E/DX2                !
 ! D15   D(12,2,3,4)           177.4364         estimate D2E/DX2                !
 ! D16   D(12,2,3,9)            -3.9874         estimate D2E/DX2                !
 ! D17   D(1,2,12,13)          -53.565          estimate D2E/DX2                !
 ! D18   D(1,2,12,14)          117.6659         estimate D2E/DX2                !
 ! D19   D(3,2,12,13)          128.3574         estimate D2E/DX2                !
 ! D20   D(3,2,12,14)          -60.4117         estimate D2E/DX2                !
 ! D21   D(2,3,4,5)              2.1366         estimate D2E/DX2                !
 ! D22   D(2,3,4,7)           -176.1671         estimate D2E/DX2                !
 ! D23   D(9,3,4,5)           -176.4179         estimate D2E/DX2                !
 ! D24   D(9,3,4,7)              5.2785         estimate D2E/DX2                !
 ! D25   D(3,4,5,6)             -1.4443         estimate D2E/DX2                !
 ! D26   D(3,4,5,10)           179.0044         estimate D2E/DX2                !
 ! D27   D(7,4,5,6)            176.839          estimate D2E/DX2                !
 ! D28   D(7,4,5,10)            -2.7123         estimate D2E/DX2                !
 ! D29   D(3,4,7,8)            -36.6624         estimate D2E/DX2                !
 ! D30   D(3,4,7,54)          -169.6359         estimate D2E/DX2                !
 ! D31   D(3,4,7,55)            76.6286         estimate D2E/DX2                !
 ! D32   D(5,4,7,8)            145.0088         estimate D2E/DX2                !
 ! D33   D(5,4,7,54)            12.0353         estimate D2E/DX2                !
 ! D34   D(5,4,7,55)          -101.7002         estimate D2E/DX2                !
 ! D35   D(4,5,6,1)             -0.6657         estimate D2E/DX2                !
 ! D36   D(4,5,6,11)          -178.4207         estimate D2E/DX2                !
 ! D37   D(10,5,6,1)           178.8794         estimate D2E/DX2                !
 ! D38   D(10,5,6,11)            1.1244         estimate D2E/DX2                !
 ! D39   D(4,7,55,56)          -91.2222         estimate D2E/DX2                !
 ! D40   D(4,7,55,57)           87.0507         estimate D2E/DX2                !
 ! D41   D(8,7,55,56)           22.1653         estimate D2E/DX2                !
 ! D42   D(8,7,55,57)         -159.5618         estimate D2E/DX2                !
 ! D43   D(54,7,55,56)         155.6848         estimate D2E/DX2                !
 ! D44   D(54,7,55,57)         -26.0423         estimate D2E/DX2                !
 ! D45   D(2,12,13,15)         -10.5366         estimate D2E/DX2                !
 ! D46   D(2,12,13,16)         171.6478         estimate D2E/DX2                !
 ! D47   D(14,12,13,15)        177.1075         estimate D2E/DX2                !
 ! D48   D(14,12,13,16)         -0.708          estimate D2E/DX2                !
 ! D49   D(2,12,14,17)           5.8772         estimate D2E/DX2                !
 ! D50   D(2,12,14,18)        -171.9511         estimate D2E/DX2                !
 ! D51   D(13,12,14,17)        178.5009         estimate D2E/DX2                !
 ! D52   D(13,12,14,18)          0.6726         estimate D2E/DX2                !
 ! D53   D(12,13,15,19)       -179.9474         estimate D2E/DX2                !
 ! D54   D(12,13,15,20)          0.4752         estimate D2E/DX2                !
 ! D55   D(16,13,15,19)         -2.3825         estimate D2E/DX2                !
 ! D56   D(16,13,15,20)        178.0402         estimate D2E/DX2                !
 ! D57   D(12,13,16,18)          0.4667         estimate D2E/DX2                !
 ! D58   D(12,13,16,21)        179.9544         estimate D2E/DX2                !
 ! D59   D(15,13,16,18)       -177.537          estimate D2E/DX2                !
 ! D60   D(15,13,16,21)          1.9506         estimate D2E/DX2                !
 ! D61   D(12,14,17,22)       -178.2429         estimate D2E/DX2                !
 ! D62   D(12,14,17,23)          1.4729         estimate D2E/DX2                !
 ! D63   D(18,14,17,22)         -0.6628         estimate D2E/DX2                !
 ! D64   D(18,14,17,23)        179.053          estimate D2E/DX2                !
 ! D65   D(12,14,18,16)         -0.377          estimate D2E/DX2                !
 ! D66   D(12,14,18,24)        178.8244         estimate D2E/DX2                !
 ! D67   D(17,14,18,16)       -178.397          estimate D2E/DX2                !
 ! D68   D(17,14,18,24)          0.8044         estimate D2E/DX2                !
 ! D69   D(13,15,19,25)          1.1442         estimate D2E/DX2                !
 ! D70   D(13,15,19,26)       -178.8985         estimate D2E/DX2                !
 ! D71   D(20,15,19,25)       -179.275          estimate D2E/DX2                !
 ! D72   D(20,15,19,26)          0.6823         estimate D2E/DX2                !
 ! D73   D(13,16,18,14)         -0.0545         estimate D2E/DX2                !
 ! D74   D(13,16,18,24)       -179.0941         estimate D2E/DX2                !
 ! D75   D(21,16,18,14)       -179.4393         estimate D2E/DX2                !
 ! D76   D(21,16,18,24)          1.5211         estimate D2E/DX2                !
 ! D77   D(13,16,21,25)         -0.2076         estimate D2E/DX2                !
 ! D78   D(13,16,21,27)        179.7946         estimate D2E/DX2                !
 ! D79   D(18,16,21,25)        179.1161         estimate D2E/DX2                !
 ! D80   D(18,16,21,27)         -0.8818         estimate D2E/DX2                !
 ! D81   D(14,17,22,28)          0.1005         estimate D2E/DX2                !
 ! D82   D(14,17,22,29)       -179.9047         estimate D2E/DX2                !
 ! D83   D(23,17,22,28)       -179.6176         estimate D2E/DX2                !
 ! D84   D(23,17,22,29)          0.3771         estimate D2E/DX2                !
 ! D85   D(14,18,24,28)         -0.3609         estimate D2E/DX2                !
 ! D86   D(14,18,24,30)       -179.9391         estimate D2E/DX2                !
 ! D87   D(16,18,24,28)        178.5833         estimate D2E/DX2                !
 ! D88   D(16,18,24,30)         -0.9949         estimate D2E/DX2                !
 ! D89   D(15,19,25,21)          0.5266         estimate D2E/DX2                !
 ! D90   D(15,19,25,31)        179.9939         estimate D2E/DX2                !
 ! D91   D(26,19,25,21)       -179.4304         estimate D2E/DX2                !
 ! D92   D(26,19,25,31)          0.0369         estimate D2E/DX2                !
 ! D93   D(16,21,25,19)         -0.9948         estimate D2E/DX2                !
 ! D94   D(16,21,25,31)        179.5394         estimate D2E/DX2                !
 ! D95   D(27,21,25,19)        179.0031         estimate D2E/DX2                !
 ! D96   D(27,21,25,31)         -0.4627         estimate D2E/DX2                !
 ! D97   D(17,22,28,24)          0.3219         estimate D2E/DX2                !
 ! D98   D(17,22,28,32)       -179.8199         estimate D2E/DX2                !
 ! D99   D(29,22,28,24)       -179.6728         estimate D2E/DX2                !
 ! D100  D(29,22,28,32)          0.1854         estimate D2E/DX2                !
 ! D101  D(18,24,28,22)         -0.1848         estimate D2E/DX2                !
 ! D102  D(18,24,28,32)        179.9574         estimate D2E/DX2                !
 ! D103  D(30,24,28,22)        179.3924         estimate D2E/DX2                !
 ! D104  D(30,24,28,32)         -0.4654         estimate D2E/DX2                !
 ! D105  D(1,33,34,36)           5.07           estimate D2E/DX2                !
 ! D106  D(1,33,34,37)        -172.4535         estimate D2E/DX2                !
 ! D107  D(35,33,34,36)        178.1325         estimate D2E/DX2                !
 ! D108  D(35,33,34,37)          0.6091         estimate D2E/DX2                !
 ! D109  D(1,33,35,38)          -9.9972         estimate D2E/DX2                !
 ! D110  D(1,33,35,39)         172.3224         estimate D2E/DX2                !
 ! D111  D(34,33,35,38)        177.0884         estimate D2E/DX2                !
 ! D112  D(34,33,35,39)         -0.5919         estimate D2E/DX2                !
 ! D113  D(33,34,36,40)       -178.0336         estimate D2E/DX2                !
 ! D114  D(33,34,36,41)          1.4303         estimate D2E/DX2                !
 ! D115  D(37,34,36,40)         -0.793          estimate D2E/DX2                !
 ! D116  D(37,34,36,41)        178.6709         estimate D2E/DX2                !
 ! D117  D(33,34,37,39)         -0.3893         estimate D2E/DX2                !
 ! D118  D(33,34,37,42)        178.6683         estimate D2E/DX2                !
 ! D119  D(36,34,37,39)       -178.1316         estimate D2E/DX2                !
 ! D120  D(36,34,37,42)          0.926          estimate D2E/DX2                !
 ! D121  D(33,35,38,43)       -179.8148         estimate D2E/DX2                !
 ! D122  D(33,35,38,44)          0.7447         estimate D2E/DX2                !
 ! D123  D(39,35,38,43)         -2.3998         estimate D2E/DX2                !
 ! D124  D(39,35,38,44)        178.1596         estimate D2E/DX2                !
 ! D125  D(33,35,39,37)          0.345          estimate D2E/DX2                !
 ! D126  D(33,35,39,45)        179.841          estimate D2E/DX2                !
 ! D127  D(38,35,39,37)       -177.5355         estimate D2E/DX2                !
 ! D128  D(38,35,39,45)          1.9606         estimate D2E/DX2                !
 ! D129  D(34,36,40,46)          0.1455         estimate D2E/DX2                !
 ! D130  D(34,36,40,47)       -179.9173         estimate D2E/DX2                !
 ! D131  D(41,36,40,46)       -179.3217         estimate D2E/DX2                !
 ! D132  D(41,36,40,47)          0.6155         estimate D2E/DX2                !
 ! D133  D(34,37,39,35)          0.0272         estimate D2E/DX2                !
 ! D134  D(34,37,39,45)       -179.3676         estimate D2E/DX2                !
 ! D135  D(42,37,39,35)       -178.8404         estimate D2E/DX2                !
 ! D136  D(42,37,39,45)          1.7647         estimate D2E/DX2                !
 ! D137  D(34,37,42,46)         -0.3846         estimate D2E/DX2                !
 ! D138  D(34,37,42,48)       -179.8817         estimate D2E/DX2                !
 ! D139  D(39,37,42,46)        178.3705         estimate D2E/DX2                !
 ! D140  D(39,37,42,48)         -1.1266         estimate D2E/DX2                !
 ! D141  D(35,38,43,49)          1.1692         estimate D2E/DX2                !
 ! D142  D(35,38,43,50)       -178.8066         estimate D2E/DX2                !
 ! D143  D(44,38,43,49)       -179.3855         estimate D2E/DX2                !
 ! D144  D(44,38,43,50)          0.6388         estimate D2E/DX2                !
 ! D145  D(35,39,45,49)         -0.2173         estimate D2E/DX2                !
 ! D146  D(35,39,45,51)        179.7682         estimate D2E/DX2                !
 ! D147  D(37,39,45,49)        179.1174         estimate D2E/DX2                !
 ! D148  D(37,39,45,51)         -0.8972         estimate D2E/DX2                !
 ! D149  D(36,40,46,42)          0.3713         estimate D2E/DX2                !
 ! D150  D(36,40,46,52)       -179.8801         estimate D2E/DX2                !
 ! D151  D(47,40,46,42)       -179.5656         estimate D2E/DX2                !
 ! D152  D(47,40,46,52)          0.183          estimate D2E/DX2                !
 ! D153  D(37,42,46,40)         -0.2442         estimate D2E/DX2                !
 ! D154  D(37,42,46,52)       -179.9921         estimate D2E/DX2                !
 ! D155  D(48,42,46,40)        179.2516         estimate D2E/DX2                !
 ! D156  D(48,42,46,52)         -0.4962         estimate D2E/DX2                !
 ! D157  D(38,43,49,45)          0.5012         estimate D2E/DX2                !
 ! D158  D(38,43,49,53)       -179.9754         estimate D2E/DX2                !
 ! D159  D(50,43,49,45)       -179.5232         estimate D2E/DX2                !
 ! D160  D(50,43,49,53)          0.0002         estimate D2E/DX2                !
 ! D161  D(39,45,49,43)         -0.9778         estimate D2E/DX2                !
 ! D162  D(39,45,49,53)        179.5001         estimate D2E/DX2                !
 ! D163  D(51,45,49,43)        179.0368         estimate D2E/DX2                !
 ! D164  D(51,45,49,53)         -0.4853         estimate D2E/DX2                !
 ! D165  D(7,55,56,58)         177.6555         estimate D2E/DX2                !
 ! D166  D(7,55,56,59)          -3.5293         estimate D2E/DX2                !
 ! D167  D(57,55,56,58)         -0.5718         estimate D2E/DX2                !
 ! D168  D(57,55,56,59)        178.2434         estimate D2E/DX2                !
 ! D169  D(7,55,57,60)        -177.7875         estimate D2E/DX2                !
 ! D170  D(7,55,57,61)           3.1414         estimate D2E/DX2                !
 ! D171  D(56,55,57,60)          0.4373         estimate D2E/DX2                !
 ! D172  D(56,55,57,61)       -178.6338         estimate D2E/DX2                !
 ! D173  D(55,56,58,62)          0.1529         estimate D2E/DX2                !
 ! D174  D(55,56,58,63)        179.6781         estimate D2E/DX2                !
 ! D175  D(59,56,58,62)       -178.6459         estimate D2E/DX2                !
 ! D176  D(59,56,58,63)          0.8793         estimate D2E/DX2                !
 ! D177  D(55,57,60,62)          0.1161         estimate D2E/DX2                !
 ! D178  D(55,57,60,64)       -179.6455         estimate D2E/DX2                !
 ! D179  D(61,57,60,62)        179.1742         estimate D2E/DX2                !
 ! D180  D(61,57,60,64)         -0.5873         estimate D2E/DX2                !
 ! D181  D(56,58,62,60)          0.3887         estimate D2E/DX2                !
 ! D182  D(56,58,62,65)        179.9466         estimate D2E/DX2                !
 ! D183  D(63,58,62,60)       -179.1341         estimate D2E/DX2                !
 ! D184  D(63,58,62,65)          0.4239         estimate D2E/DX2                !
 ! D185  D(57,60,62,58)         -0.5258         estimate D2E/DX2                !
 ! D186  D(57,60,62,65)        179.9162         estimate D2E/DX2                !
 ! D187  D(64,60,62,58)        179.2349         estimate D2E/DX2                !
 ! D188  D(64,60,62,65)         -0.3231         estimate D2E/DX2                !
 --------------------------------------------------------------------------------
 Trust Radius=3.00D-01 FncErr=1.00D-07 GrdErr=1.00D-06 EigMax=2.50D+02 EigMin=1.00D-04
 Number of steps in this run=    390 maximum allowed number of steps=    390.
 GradGradGradGradGradGradGradGradGradGradGradGradGradGradGradGradGradGrad

 Leave Link  103 at Thu Aug  8 12:56:41 2024, MaxMem=  2147483648 cpu:               0.4 elap:               0.1
 (Enter /apps/gaussian/g16/l202.exe)
 Stoichiometry    C36H24N2O2S
 Framework group  C1[X(C36H24N2O2S)]
 Deg. of freedom   189
 Full point group                 C1      NOp   1
 Largest Abelian subgroup         C1      NOp   1
 Largest concise Abelian subgroup C1      NOp   1
                         Standard orientation:                         
 ---------------------------------------------------------------------
 Center     Atomic      Atomic             Coordinates (Angstroms)
 Number     Number       Type             X           Y           Z
 ---------------------------------------------------------------------
      1          6           0       -0.292398   -1.327126    0.338022
      2          6           0        0.275701   -0.345724   -0.507751
      3          6           0        1.590108   -0.505535   -0.945958
      4          6           0        2.331520   -1.608629   -0.541782
      5          6           0        1.777710   -2.596704    0.265791
      6          6           0        0.463946   -2.448931    0.693666
      7         16           0        4.050464   -1.722413   -1.043714
      8          8           0        4.157385   -1.184125   -2.399391
      9          1           0        2.014368    0.228245   -1.622010
     10          1           0        2.371156   -3.456065    0.554836
     11          1           0        0.012048   -3.188918    1.344737
     12          7           0       -0.425587    0.812932   -0.894514
     13          6           0       -1.689155    0.871504   -1.490054
     14          6           0       -0.025510    2.115454   -0.576698
     15          6           0       -2.460656   -0.160885   -2.018803
     16          6           0       -2.108974    2.217088   -1.539842
     17          6           0        1.140846    2.551978    0.052450
     18          6           0       -1.046996    3.012103   -0.957613
     19          6           0       -3.696429    0.173530   -2.559666
     20          1           0       -2.119554   -1.189031   -2.005972
     21          6           0       -3.350681    2.530429   -2.097595
     22          6           0        1.274298    3.917860    0.283432
     23          1           0        1.916837    1.857924    0.357222
     24          6           0       -0.887371    4.378131   -0.716919
     25          6           0       -4.142808    1.503231   -2.595692
     26          1           0       -4.324440   -0.614261   -2.961553
     27          1           0       -3.689459    3.560505   -2.140277
     28          6           0        0.275170    4.824894   -0.098383
     29          1           0        2.172483    4.284444    0.769831
     30          1           0       -1.664434    5.079441   -1.003267
     31          1           0       -5.112759    1.730019   -3.025029
     32          1           0        0.411509    5.883743    0.093534
     33          7           0       -1.611391   -1.215991    0.819826
     34          6           0       -2.642997   -2.117761    0.535737
     35          6           0       -2.153245   -0.129723    1.514325
     36          6           0       -2.593990   -3.322215   -0.166008
     37          6           0       -3.854741   -1.598079    1.039645
     38          6           0       -1.506773    0.981553    2.051103
     39          6           0       -3.541324   -0.329327    1.664485
     40          6           0       -3.789022   -4.013405   -0.342168
     41          1           0       -1.663214   -3.705965   -0.569197
     42          6           0       -5.039926   -2.311861    0.851800
     43          6           0       -2.289349    1.926114    2.704669
     44          1           0       -0.435748    1.115863    1.958456
     45          6           0       -4.305938    0.628529    2.334333
     46          6           0       -5.000300   -3.518991    0.162957
     47          1           0       -3.779347   -4.953886   -0.883221
     48          1           0       -5.979405   -1.923882    1.231926
     49          6           0       -3.675350    1.757762    2.842499
     50          1           0       -1.812935    2.810276    3.114432
     51          1           0       -5.375631    0.491188    2.454732
     52          1           0       -5.913881   -4.083330    0.010029
     53          1           0       -4.257212    2.514258    3.357984
     54          8           0        4.515306   -3.068447   -0.708089
     55          6           0        4.845043   -0.560653    0.068174
     56          6           0        4.991141    0.766958   -0.331281
     57          6           0        5.267026   -0.999528    1.321594
     58          6           0        5.564120    1.676352    0.554950
     59          1           0        4.678380    1.070243   -1.324129
     60          6           0        5.840876   -0.081044    2.197194
     61          1           0        5.159149   -2.043591    1.593165
     62          6           0        5.983571    1.253413    1.816379
     63          1           0        5.689329    2.711637    0.256777
     64          1           0        6.179735   -0.407894    3.174235
     65          1           0        6.430048    1.965048    2.502887
 ---------------------------------------------------------------------
 Rotational constants (GHZ):           0.1349447           0.0677658           0.0563722
 Leave Link  202 at Thu Aug  8 12:56:41 2024, MaxMem=  2147483648 cpu:               0.6 elap:               0.1
 (Enter /apps/gaussian/g16/l301.exe)
 Standard basis: 6-31G(d,p) (6D, 7F)
 Ernie: Thresh=  0.10000D-02 Tol=  0.10000D-05 Strict=F.
 There are   739 symmetry adapted cartesian basis functions of A   symmetry.
 There are   739 symmetry adapted basis functions of A   symmetry.
   739 basis functions,  1340 primitive gaussians,   739 cartesian basis functions
   143 alpha electrons      143 beta electrons
       nuclear repulsion energy      4817.0514564087 Hartrees.
 IExCor= 4639 DFT=T Ex+Corr=wB97XD ExCW=0 ScaHFX=  1.000000
 ScaDFX=  1.000000  1.000000  1.000000  1.000000 ScalE2=  1.000000  1.000000
 IRadAn=      5 IRanWt=     -1 IRanGd=            0 ICorTp=0 IEmpDi=121
 HFx  wShort=  0.000000 wLong=  0.136000 cFull=  0.222036 cShort=  0.000000 cLong=  0.777964
 DFx  wShort=  0.000000 wLong=  0.136000 cFull=  0.000000 cShort=  0.000000 cLong=  1.000000
 NAtoms=   65 NActive=   65 NUniq=   65 SFac= 1.00D+00 NAtFMM=   60 NAOKFM=T Big=T
 Integral buffers will be    131072 words long.
 Raffenetti 1 integral format.
 Two-electron integral symmetry is turned on.
 R6Disp:  Grimme-D2 Dispersion energy=       -0.0659606160 Hartrees.
 Nuclear repulsion after empirical dispersion term =     4816.9854957927 Hartrees.
 Leave Link  301 at Thu Aug  8 12:56:41 2024, MaxMem=  2147483648 cpu:               1.0 elap:               0.2
 (Enter /apps/gaussian/g16/l302.exe)
 NPDir=0 NMtPBC=     1 NCelOv=     1 NCel=       1 NClECP=     1 NCelD=      1
         NCelK=      1 NCelE2=     1 NClLst=     1 CellRange=     0.0.
 One-electron integrals computed using PRISM.
 One-electron integral symmetry used in STVInt
 NBasis=   739 RedAO= T EigKep=  2.69D-04  NBF=   739
 NBsUse=   739 1.00D-06 EigRej= -1.00D+00 NBFU=   739
 Precomputing XC quadrature grid using
 IXCGrd= 4 IRadAn=           5 IRanWt=          -1 IRanGd=           0 AccXCQ= 0.00D+00.
 Generated NRdTot=       0 NPtTot=           0 NUsed=           0 NTot=          32
 NSgBfM=   732   732   732   732   732 MxSgAt=    65 MxSgA2=    65.
 Leave Link  302 at Thu Aug  8 12:56:46 2024, MaxMem=  2147483648 cpu:              47.7 elap:               5.0
 (Enter /apps/gaussian/g16/l303.exe)
 DipDrv:  MaxL=1.
 Leave Link  303 at Thu Aug  8 12:56:46 2024, MaxMem=  2147483648 cpu:               1.6 elap:               0.2
 (Enter /apps/gaussian/g16/l308.exe)
 Leave Link  308 at Thu Aug  8 12:56:46 2024, MaxMem=  2147483648 cpu:               2.5 elap:               0.4
 (Enter /apps/gaussian/g16/l401.exe)
 ExpMin= 1.17D-01 ExpMax= 2.19D+04 ExpMxC= 3.30D+03 IAcc=3 IRadAn=         5 AccDes= 0.00D+00
 Harris functional with IExCor= 4639 and IRadAn=       5 diagonalized for initial guess.
 HarFok:  IExCor= 4639 AccDes= 0.00D+00 IRadAn=         5 IDoV= 1 UseB2=F ITyADJ=14
 ICtDFT=  3500011 ScaDFX=  1.000000  1.000000  1.000000  1.000000
 FoFCou: FMM=F IPFlag=           0 FMFlag=      100000 FMFlg1=        2001
         NFxFlg=           0 DoJE=T BraDBF=F KetDBF=T FulRan=T
         wScrn=  0.000000 ICntrl=       500 IOpCl=  0 I1Cent=   200000004 NGrid=           0
         NMat0=    1 NMatS0=      1 NMatT0=    0 NMatD0=    1 NMtDS0=    0 NMtDT0=    0
 Petite list used in FoFCou.
 Harris En= -1972.37202578536    
 JPrj=0 DoOrth=F DoCkMO=F.
 Leave Link  401 at Thu Aug  8 12:56:54 2024, MaxMem=  2147483648 cpu:              69.0 elap:               7.3
 (Enter /apps/gaussian/g16/l502.exe)
 Integral symmetry usage will be decided dynamically.
 Closed shell SCF:
 Using DIIS extrapolation, IDIIS=  1040.
 NGot=  2147483648 LenX=  2146370496 LenY=  2145823636
 Requested convergence on RMS density matrix=1.00D-08 within 128 cycles.
 Requested convergence on MAX density matrix=1.00D-06.
 Requested convergence on             energy=1.00D-06.
 No special actions if energy rises.
 Fock matrices will be formed incrementally for  20 cycles.
 Integral accuracy reduced to 1.0D-05 until final iterations.

 Cycle   1  Pass 0  IDiag  1:
 FoFJK:  IHMeth= 1 ICntrl=       0 DoSepK=T KAlg= 0 I1Cent=           0 FoldK=F
 IRaf=         1 NMat=       1 IRICut=       1 DoRegI=T DoRafI=F ISym2E= 0 IDoP0=0 IntGTp=1.
 FoFCou: FMM=T IPFlag=           0 FMFlag=      100000 FMFlg1=        2001
         NFxFlg=           0 DoJE=T BraDBF=F KetDBF=F FulRan=T
         wScrn=  0.000000 ICntrl=       500 IOpCl=  0 I1Cent=           0 NGrid=           0
         NMat0=    1 NMatS0=      1 NMatT0=    0 NMatD0=    1 NMtDS0=    0 NMtDT0=    0
 Symmetry not used in FoFCou.
 FMM levels:  10  Number of levels for PrismC:   9
 E= -2043.39650260599    
 DIIS: error= 6.17D-02 at cycle   1 NSaved=   1.
 NSaved= 1 IEnMin= 1 EnMin= -2043.39650260599     IErMin= 1 ErrMin= 6.17D-02
 ErrMax= 6.17D-02  0.00D+00 EMaxC= 1.00D-01 BMatC= 1.95D+00 BMatP= 1.95D+00
 IDIUse=3 WtCom= 3.83D-01 WtEn= 6.17D-01
 Coeff-Com:  0.100D+01
 Coeff-En:   0.100D+01
 Coeff:      0.100D+01
 Gap=     0.380 Goal=   None    Shift=    0.000
 GapD=    0.380 DampG=1.000 DampE=0.500 DampFc=0.5000 IDamp=-1.
 Damping current iteration by 5.00D-01
 RMSDP=2.71D-03 MaxDP=4.64D-01              OVMax= 2.12D-01

 Cycle   2  Pass 0  IDiag  1:
 RMSU=  1.36D-03    CP:  1.00D+00
 E= -2043.65060945812     Delta-E=       -0.254106852138 Rises=F Damp=T
 DIIS: error= 3.12D-02 at cycle   2 NSaved=   2.
 NSaved= 2 IEnMin= 2 EnMin= -2043.65060945812     IErMin= 2 ErrMin= 3.12D-02
 ErrMax= 3.12D-02  0.00D+00 EMaxC= 1.00D-01 BMatC= 4.02D-01 BMatP= 1.95D+00
 IDIUse=3 WtCom= 6.88D-01 WtEn= 3.12D-01
 Coeff-Com: -0.298D+00 0.130D+01
 Coeff-En:   0.830D-01 0.917D+00
 Coeff:     -0.179D+00 0.118D+01
 Gap=     0.301 Goal=   None    Shift=    0.000
 RMSDP=1.26D-03 MaxDP=7.51D-02 DE=-2.54D-01 OVMax= 2.67D-01

 Cycle   3  Pass 0  IDiag  1:
 RMSU=  1.22D-03    CP:  1.00D+00  7.68D-01
 E= -2043.79011619940     Delta-E=       -0.139506741278 Rises=F Damp=F
 DIIS: error= 1.33D-02 at cycle   3 NSaved=   3.
 NSaved= 3 IEnMin= 3 EnMin= -2043.79011619940     IErMin= 3 ErrMin= 1.33D-02
 ErrMax= 1.33D-02  0.00D+00 EMaxC= 1.00D-01 BMatC= 2.45D-01 BMatP= 4.02D-01
 IDIUse=3 WtCom= 8.67D-01 WtEn= 1.33D-01
 Coeff-Com: -0.314D+00 0.709D+00 0.604D+00
 Coeff-En:   0.000D+00 0.239D+00 0.761D+00
 Coeff:     -0.272D+00 0.647D+00 0.625D+00
 Gap=     0.286 Goal=   None    Shift=    0.000
 RMSDP=9.82D-04 MaxDP=6.88D-02 DE=-1.40D-01 OVMax= 1.28D-01

 Cycle   4  Pass 0  IDiag  1:
 RMSU=  4.71D-04    CP:  1.00D+00  1.20D+00  4.81D-01
 E= -2044.00035005925     Delta-E=       -0.210233859853 Rises=F Damp=F
 DIIS: error= 4.73D-03 at cycle   4 NSaved=   4.
 NSaved= 4 IEnMin= 4 EnMin= -2044.00035005925     IErMin= 4 ErrMin= 4.73D-03
 ErrMax= 4.73D-03  0.00D+00 EMaxC= 1.00D-01 BMatC= 2.57D-02 BMatP= 2.45D-01
 IDIUse=3 WtCom= 9.53D-01 WtEn= 4.73D-02
 Coeff-Com: -0.129D+00 0.272D+00 0.354D+00 0.503D+00
 Coeff-En:   0.000D+00 0.000D+00 0.776D-01 0.922D+00
 Coeff:     -0.123D+00 0.259D+00 0.341D+00 0.523D+00
 Gap=     0.247 Goal=   None    Shift=    0.000
 RMSDP=2.95D-04 MaxDP=2.37D-02 DE=-2.10D-01 OVMax= 3.11D-02

 Cycle   5  Pass 0  IDiag  1:
 RMSU=  1.13D-04    CP:  1.00D+00  1.14D+00  6.32D-01  6.14D-01
 E= -2044.02586593579     Delta-E=       -0.025515876535 Rises=F Damp=F
 DIIS: error= 6.04D-04 at cycle   5 NSaved=   5.
 NSaved= 5 IEnMin= 5 EnMin= -2044.02586593579     IErMin= 5 ErrMin= 6.04D-04
 ErrMax= 6.04D-04  0.00D+00 EMaxC= 1.00D-01 BMatC= 7.14D-04 BMatP= 2.57D-02
 IDIUse=3 WtCom= 9.94D-01 WtEn= 6.04D-03
 Coeff-Com: -0.353D-01 0.720D-01 0.112D+00 0.230D+00 0.621D+00
 Coeff-En:   0.000D+00 0.000D+00 0.000D+00 0.000D+00 0.100D+01
 Coeff:     -0.351D-01 0.716D-01 0.112D+00 0.228D+00 0.624D+00
 Gap=     0.245 Goal=   None    Shift=    0.000
 RMSDP=5.32D-05 MaxDP=4.01D-03 DE=-2.55D-02 OVMax= 6.78D-03

 Cycle   6  Pass 0  IDiag  1:
 RMSU=  4.18D-05    CP:  1.00D+00  1.14D+00  6.24D-01  6.64D-01  8.36D-01
 E= -2044.02647938181     Delta-E=       -0.000613446020 Rises=F Damp=F
 DIIS: error= 4.67D-04 at cycle   6 NSaved=   6.
 NSaved= 6 IEnMin= 6 EnMin= -2044.02647938181     IErMin= 6 ErrMin= 4.67D-04
 ErrMax= 4.67D-04  0.00D+00 EMaxC= 1.00D-01 BMatC= 1.58D-04 BMatP= 7.14D-04
 IDIUse=3 WtCom= 9.95D-01 WtEn= 4.67D-03
 Coeff-Com:  0.116D-01-0.252D-01-0.203D-01 0.387D-02 0.342D+00 0.688D+00
 Coeff-En:   0.000D+00 0.000D+00 0.000D+00 0.000D+00 0.108D+00 0.892D+00
 Coeff:      0.115D-01-0.251D-01-0.202D-01 0.385D-02 0.341D+00 0.689D+00
 Gap=     0.246 Goal=   None    Shift=    0.000
 RMSDP=2.39D-05 MaxDP=1.96D-03 DE=-6.13D-04 OVMax= 2.47D-03

 Cycle   7  Pass 0  IDiag  1:
 RMSU=  1.67D-05    CP:  1.00D+00  1.14D+00  6.30D-01  6.70D-01  9.40D-01
                    CP:  7.78D-01
 E= -2044.02663137242     Delta-E=       -0.000151990611 Rises=F Damp=F
 DIIS: error= 1.12D-04 at cycle   7 NSaved=   7.
 NSaved= 7 IEnMin= 7 EnMin= -2044.02663137242     IErMin= 7 ErrMin= 1.12D-04
 ErrMax= 1.12D-04  0.00D+00 EMaxC= 1.00D-01 BMatC= 1.27D-05 BMatP= 1.58D-04
 IDIUse=3 WtCom= 9.99D-01 WtEn= 1.12D-03
 Coeff-Com:  0.768D-02-0.163D-01-0.161D-01-0.136D-01 0.122D+00 0.338D+00
 Coeff-Com:  0.579D+00
 Coeff-En:   0.000D+00 0.000D+00 0.000D+00 0.000D+00 0.000D+00 0.000D+00
 Coeff-En:   0.100D+01
 Coeff:      0.767D-02-0.163D-01-0.161D-01-0.136D-01 0.122D+00 0.338D+00
 Coeff:      0.579D+00
 Gap=     0.246 Goal=   None    Shift=    0.000
 RMSDP=7.11D-06 MaxDP=7.99D-04 DE=-1.52D-04 OVMax= 7.60D-04

 Initial convergence to 1.0D-05 achieved.  Increase integral accuracy.
 Cycle   8  Pass 1  IDiag  1:
 E= -2044.02674373543     Delta-E=       -0.000112363009 Rises=F Damp=F
 DIIS: error= 2.76D-04 at cycle   1 NSaved=   1.
 NSaved= 1 IEnMin= 1 EnMin= -2044.02674373543     IErMin= 1 ErrMin= 2.76D-04
 ErrMax= 2.76D-04  0.00D+00 EMaxC= 1.00D-01 BMatC= 2.90D-05 BMatP= 2.90D-05
 IDIUse=3 WtCom= 9.97D-01 WtEn= 2.76D-03
 Coeff-Com:  0.100D+01
 Coeff-En:   0.100D+01
 Coeff:      0.100D+01
 Gap=     0.246 Goal=   None    Shift=    0.000
 RMSDP=7.11D-06 MaxDP=7.99D-04 DE=-1.12D-04 OVMax= 5.89D-04

 Cycle   9  Pass 1  IDiag  1:
 RMSU=  1.34D-04    CP:  1.00D+00
 E= -2044.02676837748     Delta-E=       -0.000024642052 Rises=F Damp=F
 DIIS: error= 3.30D-05 at cycle   2 NSaved=   2.
 NSaved= 2 IEnMin= 2 EnMin= -2044.02676837748     IErMin= 2 ErrMin= 3.30D-05
 ErrMax= 3.30D-05  0.00D+00 EMaxC= 1.00D-01 BMatC= 1.33D-06 BMatP= 2.90D-05
 IDIUse=1 WtCom= 1.00D+00 WtEn= 0.00D+00
 Coeff-Com:  0.380D-01 0.962D+00
 Coeff:      0.380D-01 0.962D+00
 Gap=     0.246 Goal=   None    Shift=    0.000
 RMSDP=7.03D-06 MaxDP=3.80D-04 DE=-2.46D-05 OVMax= 4.77D-04

 Cycle  10  Pass 1  IDiag  1:
 RMSU=  3.83D-06    CP:  1.00D+00  1.04D+00
 E= -2044.02676782322     Delta-E=        0.000000554263 Rises=F Damp=F
 DIIS: error= 3.95D-05 at cycle   3 NSaved=   3.
 NSaved= 3 IEnMin= 2 EnMin= -2044.02676837748     IErMin= 2 ErrMin= 3.30D-05
 ErrMax= 3.95D-05  0.00D+00 EMaxC= 1.00D-01 BMatC= 2.34D-06 BMatP= 1.33D-06
 IDIUse=1 WtCom= 1.00D+00 WtEn= 0.00D+00
 Coeff-Com: -0.238D-01 0.582D+00 0.442D+00
 Coeff:     -0.238D-01 0.582D+00 0.442D+00
 Gap=     0.246 Goal=   None    Shift=    0.000
 RMSDP=2.23D-06 MaxDP=2.37D-04 DE= 5.54D-07 OVMax= 2.01D-04

 Cycle  11  Pass 1  IDiag  1:
 RMSU=  1.09D-06    CP:  1.00D+00  1.05D+00  5.23D-01
 E= -2044.02676981369     Delta-E=       -0.000001990475 Rises=F Damp=F
 DIIS: error= 4.32D-06 at cycle   4 NSaved=   4.
 NSaved= 4 IEnMin= 4 EnMin= -2044.02676981369     IErMin= 4 ErrMin= 4.32D-06
 ErrMax= 4.32D-06  0.00D+00 EMaxC= 1.00D-01 BMatC= 3.25D-08 BMatP= 1.33D-06
 IDIUse=1 WtCom= 1.00D+00 WtEn= 0.00D+00
 Coeff-Com: -0.125D-01 0.263D+00 0.207D+00 0.543D+00
 Coeff:     -0.125D-01 0.263D+00 0.207D+00 0.543D+00
 Gap=     0.246 Goal=   None    Shift=    0.000
 RMSDP=3.61D-07 MaxDP=2.51D-05 DE=-1.99D-06 OVMax= 6.53D-05

 Cycle  12  Pass 1  IDiag  1:
 RMSU=  3.38D-07    CP:  1.00D+00  1.05D+00  5.51D-01  9.89D-01
 E= -2044.02676985371     Delta-E=       -0.000000040019 Rises=F Damp=F
 DIIS: error= 2.60D-06 at cycle   5 NSaved=   5.
 NSaved= 5 IEnMin= 5 EnMin= -2044.02676985371     IErMin= 5 ErrMin= 2.60D-06
 ErrMax= 2.60D-06  0.00D+00 EMaxC= 1.00D-01 BMatC= 5.94D-09 BMatP= 3.25D-08
 IDIUse=1 WtCom= 1.00D+00 WtEn= 0.00D+00
 Coeff-Com:  0.462D-02-0.127D+00-0.106D+00 0.201D+00 0.103D+01
 Coeff:      0.462D-02-0.127D+00-0.106D+00 0.201D+00 0.103D+01
 Gap=     0.246 Goal=   None    Shift=    0.000
 RMSDP=3.17D-07 MaxDP=1.17D-05 DE=-4.00D-08 OVMax= 6.38D-05

 Cycle  13  Pass 1  IDiag  1:
 RMSU=  2.03D-07    CP:  1.00D+00  1.05D+00  5.58D-01  1.20D+00  1.12D+00
 E= -2044.02676987292     Delta-E=       -0.000000019209 Rises=F Damp=F
 DIIS: error= 9.53D-07 at cycle   6 NSaved=   6.
 NSaved= 6 IEnMin= 6 EnMin= -2044.02676987292     IErMin= 6 ErrMin= 9.53D-07
 ErrMax= 9.53D-07  0.00D+00 EMaxC= 1.00D-01 BMatC= 9.14D-10 BMatP= 5.94D-09
 IDIUse=1 WtCom= 1.00D+00 WtEn= 0.00D+00
 Coeff-Com:  0.311D-02-0.779D-01-0.654D-01 0.367D-01 0.452D+00 0.652D+00
 Coeff:      0.311D-02-0.779D-01-0.654D-01 0.367D-01 0.452D+00 0.652D+00
 Gap=     0.246 Goal=   None    Shift=    0.000
 RMSDP=9.06D-08 MaxDP=5.22D-06 DE=-1.92D-08 OVMax= 2.29D-05

 Cycle  14  Pass 1  IDiag  1:
 RMSU=  7.24D-08    CP:  1.00D+00  1.05D+00  5.60D-01  1.22D+00  1.25D+00
                    CP:  1.08D+00
 E= -2044.02676987493     Delta-E=       -0.000000002007 Rises=F Damp=F
 DIIS: error= 5.72D-07 at cycle   7 NSaved=   7.
 NSaved= 7 IEnMin= 7 EnMin= -2044.02676987493     IErMin= 7 ErrMin= 5.72D-07
 ErrMax= 5.72D-07  0.00D+00 EMaxC= 1.00D-01 BMatC= 2.31D-10 BMatP= 9.14D-10
 IDIUse=1 WtCom= 1.00D+00 WtEn= 0.00D+00
 Coeff-Com:  0.361D-03-0.626D-02-0.538D-02-0.425D-01-0.615D-01 0.323D+00
 Coeff-Com:  0.792D+00
 Coeff:      0.361D-03-0.626D-02-0.538D-02-0.425D-01-0.615D-01 0.323D+00
 Coeff:      0.792D+00
 Gap=     0.246 Goal=   None    Shift=    0.000
 RMSDP=5.66D-08 MaxDP=3.46D-06 DE=-2.01D-09 OVMax= 1.11D-05

 Cycle  15  Pass 1  IDiag  1:
 RMSU=  2.71D-08    CP:  1.00D+00  1.05D+00  5.61D-01  1.24D+00  1.30D+00
                    CP:  1.28D+00  9.41D-01
 E= -2044.02676987549     Delta-E=       -0.000000000568 Rises=F Damp=F
 DIIS: error= 1.88D-07 at cycle   8 NSaved=   8.
 NSaved= 8 IEnMin= 8 EnMin= -2044.02676987549     IErMin= 8 ErrMin= 1.88D-07
 ErrMax= 1.88D-07  0.00D+00 EMaxC= 1.00D-01 BMatC= 5.22D-11 BMatP= 2.31D-10
 IDIUse=1 WtCom= 1.00D+00 WtEn= 0.00D+00
 Coeff-Com: -0.336D-03 0.102D-01 0.860D-02-0.269D-01-0.108D+00 0.641D-01
 Coeff-Com:  0.445D+00 0.607D+00
 Coeff:     -0.336D-03 0.102D-01 0.860D-02-0.269D-01-0.108D+00 0.641D-01
 Coeff:      0.445D+00 0.607D+00
 Gap=     0.246 Goal=   None    Shift=    0.000
 RMSDP=1.68D-08 MaxDP=1.86D-06 DE=-5.68D-10 OVMax= 3.67D-06

 Cycle  16  Pass 1  IDiag  1:
 RMSU=  1.09D-08    CP:  1.00D+00  1.05D+00  5.61D-01  1.24D+00  1.31D+00
                    CP:  1.32D+00  1.04D+00  8.43D-01
 E= -2044.02676987556     Delta-E=       -0.000000000069 Rises=F Damp=F
 DIIS: error= 3.50D-08 at cycle   9 NSaved=   9.
 NSaved= 9 IEnMin= 9 EnMin= -2044.02676987556     IErMin= 9 ErrMin= 3.50D-08
 ErrMax= 3.50D-08  0.00D+00 EMaxC= 1.00D-01 BMatC= 1.88D-12 BMatP= 5.22D-11
 IDIUse=1 WtCom= 1.00D+00 WtEn= 0.00D+00
 Coeff-Com: -0.122D-03 0.307D-02 0.280D-02-0.995D-03-0.189D-01-0.267D-01
 Coeff-Com:  0.199D-01 0.957D-01 0.925D+00
 Coeff:     -0.122D-03 0.307D-02 0.280D-02-0.995D-03-0.189D-01-0.267D-01
 Coeff:      0.199D-01 0.957D-01 0.925D+00
 Gap=     0.246 Goal=   None    Shift=    0.000
 RMSDP=5.77D-09 MaxDP=2.54D-07 DE=-6.91D-11 OVMax= 1.37D-06

 SCF Done:  E(RwB97XD) =  -2044.02676988     A.U. after   16 cycles
            NFock= 16  Conv=0.58D-08     -V/T= 2.0081
 KE= 2.027548195649D+03 PE=-1.439689057062D+04 EE= 5.508330109302D+03
 Leave Link  502 at Thu Aug  8 13:01:46 2024, MaxMem=  2147483648 cpu:            2716.6 elap:             292.3
 (Enter /apps/gaussian/g16/l801.exe)
 DoSCS=F DFT=T ScalE2(SS,OS)=  1.000000  1.000000
 ExpMin= 1.17D-01 ExpMax= 2.19D+04 ExpMxC= 3.30D+03 IAcc=3 IRadAn=         5 AccDes= 0.00D+00
 HarFok:  IExCor=  205 AccDes= 0.00D+00 IRadAn=         5 IDoV=-2 UseB2=F ITyADJ=14
 ICtDFT= 12500011 ScaDFX=  1.000000  1.000000  1.000000  1.000000
 GSVD:  LWork=       -2385 too small for GESVD, short by       10800 words or       10800 for optimal perf.
 Largest valence mixing into a core orbital is  1.65D-04
 Largest core mixing into a valence orbital is  3.37D-05
 Range of M.O.s used for correlation:    46   739
 NBasis=   739 NAE=   143 NBE=   143 NFC=    45 NFV=     0
 NROrb=    694 NOA=    98 NOB=    98 NVA=   596 NVB=   596
 Leave Link  801 at Thu Aug  8 13:01:49 2024, MaxMem=  2147483648 cpu:              20.6 elap:               2.5
 (Enter /apps/gaussian/g16/l914.exe)
 RHF ground state
 Two-electron integrals replicated using symmetry.
 MDV=  2147483648 DFT=T DoStab=F Mixed=T DoRPA=F DoScal=F NonHer=F
 Making orbital integer symmetry assigments:
 Orbital symmetries:
       Occupied  (A) (A) (A) (A) (A) (A) (A) (A) (A) (A) (A) (A)
                 (A) (A) (A) (A) (A) (A) (A) (A) (A) (A) (A) (A)
                 (A) (A) (A) (A) (A) (A) (A) (A) (A) (A) (A) (A)
                 (A) (A) (A) (A) (A) (A) (A) (A) (A) (A) (A) (A)
                 (A) (A) (A) (A) (A) (A) (A) (A) (A) (A) (A) (A)
                 (A) (A) (A) (A) (A) (A) (A) (A) (A) (A) (A) (A)
                 (A) (A) (A) (A) (A) (A) (A) (A) (A) (A) (A) (A)
                 (A) (A) (A) (A) (A) (A) (A) (A) (A) (A) (A) (A)
                 (A) (A) (A) (A) (A) (A) (A) (A) (A) (A) (A) (A)
                 (A) (A) (A) (A) (A) (A) (A) (A) (A) (A) (A) (A)
                 (A) (A) (A) (A) (A) (A) (A) (A) (A) (A) (A) (A)
                 (A) (A) (A) (A) (A) (A) (A) (A) (A) (A) (A)
       Virtual   (A) (A) (A) (A) (A) (A) (A) (A) (A) (A) (A) (A)
                 (A) (A) (A) (A) (A) (A) (A) (A) (A) (A) (A) (A)
                 (A) (A) (A) (A) (A) (A) (A) (A) (A) (A) (A) (A)
                 (A) (A) (A) (A) (A) (A) (A) (A) (A) (A) (A) (A)
                 (A) (A) (A) (A) (A) (A) (A) (A) (A) (A) (A) (A)
                 (A) (A) (A) (A) (A) (A) (A) (A) (A) (A) (A) (A)
                 (A) (A) (A) (A) (A) (A) (A) (A) (A) (A) (A) (A)
                 (A) (A) (A) (A) (A) (A) (A) (A) (A) (A) (A) (A)
                 (A) (A) (A) (A) (A) (A) (A) (A) (A) (A) (A) (A)
                 (A) (A) (A) (A) (A) (A) (A) (A) (A) (A) (A) (A)
                 (A) (A) (A) (A) (A) (A) (A) (A) (A) (A) (A) (A)
                 (A) (A) (A) (A) (A) (A) (A) (A) (A) (A) (A) (A)
                 (A) (A) (A) (A) (A) (A) (A) (A) (A) (A) (A) (A)
                 (A) (A) (A) (A) (A) (A) (A) (A) (A) (A) (A) (A)
                 (A) (A) (A) (A) (A) (A) (A) (A) (A) (A) (A) (A)
                 (A) (A) (A) (A) (A) (A) (A) (A) (A) (A) (A) (A)
                 (A) (A) (A) (A) (A) (A) (A) (A) (A) (A) (A) (A)
                 (A) (A) (A) (A) (A) (A) (A) (A) (A) (A) (A) (A)
                 (A) (A) (A) (A) (A) (A) (A) (A) (A) (A) (A) (A)
                 (A) (A) (A) (A) (A) (A) (A) (A) (A) (A) (A) (A)
                 (A) (A) (A) (A) (A) (A) (A) (A) (A) (A) (A) (A)
                 (A) (A) (A) (A) (A) (A) (A) (A) (A) (A) (A) (A)
                 (A) (A) (A) (A) (A) (A) (A) (A) (A) (A) (A) (A)
                 (A) (A) (A) (A) (A) (A) (A) (A) (A) (A) (A) (A)
                 (A) (A) (A) (A) (A) (A) (A) (A) (A) (A) (A) (A)
                 (A) (A) (A) (A) (A) (A) (A) (A) (A) (A) (A) (A)
                 (A) (A) (A) (A) (A) (A) (A) (A) (A) (A) (A) (A)
                 (A) (A) (A) (A) (A) (A) (A) (A) (A) (A) (A) (A)
                 (A) (A) (A) (A) (A) (A) (A) (A) (A) (A) (A) (A)
                 (A) (A) (A) (A) (A) (A) (A) (A) (A) (A) (A) (A)
                 (A) (A) (A) (A) (A) (A) (A) (A) (A) (A) (A) (A)
                 (A) (A) (A) (A) (A) (A) (A) (A) (A) (A) (A) (A)
                 (A) (A) (A) (A) (A) (A) (A) (A) (A) (A) (A) (A)
                 (A) (A) (A) (A) (A) (A) (A) (A) (A) (A) (A) (A)
                 (A) (A) (A) (A) (A) (A) (A) (A) (A) (A) (A) (A)
                 (A) (A) (A) (A) (A) (A) (A) (A) (A) (A) (A) (A)
                 (A) (A) (A) (A) (A) (A) (A) (A) (A) (A) (A) (A)
                 (A) (A) (A) (A) (A) (A) (A) (A) (A) (A) (A) (A)
                 (A) (A) (A) (A) (A) (A) (A) (A) (A) (A) (A) (A)
                 (A) (A) (A) (A) (A) (A) (A) (A) (A) (A) (A) (A)
                 (A) (A) (A) (A) (A) (A) (A) (A) (A) (A) (A) (A)
                 (A) (A) (A) (A) (A) (A) (A) (A) (A) (A) (A) (A)
                 (A) (A) (A) (A) (A) (A) (A) (A) (A) (A) (A) (A)
                 (A) (A) (A) (A) (A) (A) (A) (A) (A) (A) (A) (A)
                 (A) (A) (A) (A) (A) (A) (A) (A) (A) (A) (A) (A)
                 (A) (A) (A) (A) (A) (A) (A) (A) (A) (A) (A) (A)
                 (A) (A) (A) (A) (A) (A) (A) (A) (A) (A) (A) (A)
                 (A) (A) (A) (A) (A) (A) (A) (A) (A) (A) (A) (A)
                 (A) (A) (A) (A) (A) (A) (A) (A) (A) (A) (A) (A)
                 (A) (A) (A) (A) (A) (A) (A) (A)
    16 initial guesses have been made.
 Convergence on wavefunction:    0.000001000000000
 Davidson Disk Diagonalization:  ConvIn= 1.00D-06 SkipCon=T Conv= 1.00D-06.
 Max sub-space:  2000 roots to seek:    16 dimension of matrix:       116816
 Iteration     1 Dimension    16 NMult     0 NNew     16
 CISAX will form    16 AO SS matrices at one time.
 NMat=    16 NSing=    16 JSym2X= 0.
 FoFJK:  IHMeth= 1 ICntrl=       0 DoSepK=T KAlg= 0 I1Cent=           0 FoldK=F
 IRaf=         1 NMat=      32 IRICut=       1 DoRegI=T DoRafI=F ISym2E= 0 IDoP0=0 IntGTp=1.
 FoFCou: FMM=T IPFlag=           0 FMFlag=      100000 FMFlg1=        2001
         NFxFlg=           0 DoJE=F BraDBF=F KetDBF=F FulRan=T
         wScrn=  0.000000 ICntrl=       500 IOpCl=  0 I1Cent=           0 NGrid=           0
         NMat0=   16 NMatS0=     16 NMatT0=    0 NMatD0=   16 NMtDS0=    0 NMtDT0=    0
 Symmetry not used in FoFCou.
 FMM levels:  10  Number of levels for PrismC:   9
 New state      3 was old state      5
 New state      4 was old state      3
 Excitation Energies [eV] at current iteration:
 Root      1 :     4.122330026826546
 Root      2 :     4.231871743797971
 Root      3 :     4.596854286073927
 Root      4 :     4.659784538139844
 Root      5 :     4.780504597523889
 Root      6 :     4.894805629137341
 Root      7 :     5.060645749429775
 Root      8 :     5.103719603482945
 Root      9 :     5.114227077605003
 Root     10 :     5.226752030983708
 Root     11 :     5.327718309442202
 Root     12 :     5.368528688438180
 Root     13 :     5.486896998087875
 Root     14 :     5.514302647442290
 Root     15 :     5.768403752322237
 Root     16 :     5.890343704148147
 Iteration     2 Dimension    32 NMult    16 NNew     16
 CISAX will form    16 AO SS matrices at one time.
 NMat=    16 NSing=    16 JSym2X= 0.
 Root      1 not converged, maximum delta is    0.100008004822458
 Root      2 not converged, maximum delta is    0.108585617137850
 Root      3 not converged, maximum delta is    0.069277530112333
 Root      4 not converged, maximum delta is    0.137227709425725
 Excitation Energies [eV] at current iteration:
 Root      1 :     3.984003336969121   Change is   -0.138326689857425
 Root      2 :     4.100554529570015   Change is   -0.131317214227956
 Root      3 :     4.428534727105273   Change is   -0.168319558968654
 Root      4 :     4.526389202523277   Change is   -0.133395335616567
 Root      5 :     4.570210160680526   Change is   -0.210294436843363
 Root      6 :     4.592772170911483   Change is   -0.775756517526697
 Root      7 :     4.646140326341627   Change is   -0.580611704642081
 Root      8 :     4.737292814704545   Change is   -0.157512814432796
 Root      9 :     4.990832599910305   Change is   -0.112887003572641
 Root     10 :     5.018010645933779   Change is   -0.042635103495996
 Root     11 :     5.058901844950750   Change is   -0.055325232654253
 Root     12 :     5.168096261212740   Change is   -0.346206386229551
 Root     13 :     5.223771685184934   Change is   -0.103946624257268
 Root     14 :     5.395072896201517   Change is   -0.091824101886358
 Root     15 :     5.682855156284066   Change is   -0.085548596038171
 Root     16 :     5.793258809614814   Change is   -0.097084894533333
 Iteration     3 Dimension    36 NMult    32 NNew      4
 CISAX will form     4 AO SS matrices at one time.
 NMat=     4 NSing=     4 JSym2X= 0.
 Root      1 not converged, maximum delta is    0.018097429061204
 Root      2 not converged, maximum delta is    0.019889163326483
 Root      3 not converged, maximum delta is    0.022390855475353
 Root      4 not converged, maximum delta is    0.048045396879821
 Excitation Energies [eV] at current iteration:
 Root      1 :     3.950344573476125   Change is   -0.033658763492996
 Root      2 :     4.066372879384520   Change is   -0.034181650185495
 Root      3 :     4.382622110768604   Change is   -0.045912616336669
 Root      4 :     4.489182882269993   Change is   -0.037206320253285
 Iteration     4 Dimension    40 NMult    36 NNew      4
 CISAX will form     4 AO SS matrices at one time.
 NMat=     4 NSing=     4 JSym2X= 0.
 Root      1 not converged, maximum delta is    0.005664147680407
 Root      2 not converged, maximum delta is    0.007985544645757
 Root      3 not converged, maximum delta is    0.017318782244393
 Root      4 not converged, maximum delta is    0.056284564038901
 Excitation Energies [eV] at current iteration:
 Root      1 :     3.946145776045470   Change is   -0.004198797430655
 Root      2 :     4.062157807151854   Change is   -0.004215072232667
 Root      3 :     4.374032495817931   Change is   -0.008589614950672
 Root      4 :     4.480295876869448   Change is   -0.008887005400544
 Iteration     5 Dimension    44 NMult    40 NNew      4
 CISAX will form     4 AO SS matrices at one time.
 NMat=     4 NSing=     4 JSym2X= 0.
 Root      1 not converged, maximum delta is    0.002537747111915
 Root      2 not converged, maximum delta is    0.003320136246839
 Root      3 not converged, maximum delta is    0.014641332760229
 Root      4 not converged, maximum delta is    0.118459060218781
 Excitation Energies [eV] at current iteration:
 Root      1 :     3.945140507061633   Change is   -0.001005268983837
 Root      2 :     4.061322642819338   Change is   -0.000835164332515
 Root      3 :     4.370986634097184   Change is   -0.003045861720747
 Root      4 :     4.471926307074873   Change is   -0.008369569794575
 Iteration     6 Dimension    48 NMult    44 NNew      4
 CISAX will form     4 AO SS matrices at one time.
 NMat=     4 NSing=     4 JSym2X= 0.
 Root      1 not converged, maximum delta is    0.001605406354575
[...]
 Alpha  occ. eigenvalues --   -0.95306  -0.92219  -0.91717  -0.91560  -0.91134
 Alpha  occ. eigenvalues --   -0.87650  -0.86904  -0.85375  -0.84088  -0.84021
 Alpha  occ. eigenvalues --   -0.83497  -0.82034  -0.81496  -0.79933  -0.78796
 Alpha  occ. eigenvalues --   -0.78548  -0.78326  -0.75977  -0.72468  -0.71977
 Alpha  occ. eigenvalues --   -0.69970  -0.69596  -0.69321  -0.67369  -0.67152
 Alpha  occ. eigenvalues --   -0.66900  -0.65802  -0.64136  -0.63951  -0.63665
 Alpha  occ. eigenvalues --   -0.62086  -0.60754  -0.58976  -0.58457  -0.58055
 Alpha  occ. eigenvalues --   -0.57745  -0.57601  -0.56506  -0.55770  -0.55020
 Alpha  occ. eigenvalues --   -0.54048  -0.53606  -0.52507  -0.52291  -0.51577
 Alpha  occ. eigenvalues --   -0.51527  -0.51141  -0.50990  -0.50527  -0.50461
 Alpha  occ. eigenvalues --   -0.50036  -0.49623  -0.49312  -0.49079  -0.48888
 Alpha  occ. eigenvalues --   -0.47850  -0.47757  -0.47411  -0.47286  -0.46809
 Alpha  occ. eigenvalues --   -0.46489  -0.45251  -0.45061  -0.44458  -0.42721
 Alpha  occ. eigenvalues --   -0.42530  -0.42177  -0.42042  -0.41951  -0.41837
 Alpha  occ. eigenvalues --   -0.40056  -0.39810  -0.39567  -0.39459  -0.39129
 Alpha  occ. eigenvalues --   -0.38945  -0.38838  -0.38145  -0.37557  -0.36551
 Alpha  occ. eigenvalues --   -0.35850  -0.35688  -0.35199  -0.34314  -0.33175
 Alpha  occ. eigenvalues --   -0.32708  -0.32541  -0.31578  -0.29315  -0.26866
 Alpha  occ. eigenvalues --   -0.26197  -0.26078  -0.24448
 Alpha virt. eigenvalues --   -0.03237   0.01164   0.02196   0.02325   0.03362
 Alpha virt. eigenvalues --    0.03599   0.05871   0.06702   0.08086   0.08856
 Alpha virt. eigenvalues --    0.10046   0.11125   0.11448   0.12833   0.14413
 Alpha virt. eigenvalues --    0.15048   0.16526   0.16903   0.17457   0.17788
 Alpha virt. eigenvalues --    0.18329   0.18532   0.19004   0.19659   0.20227
 Alpha virt. eigenvalues --    0.20883   0.21191   0.21367   0.21752   0.21950
 Alpha virt. eigenvalues --    0.22511   0.22615   0.22843   0.23499   0.23553
 Alpha virt. eigenvalues --    0.23762   0.24029   0.24702   0.24785   0.25405
 Alpha virt. eigenvalues --    0.26197   0.26562   0.26672   0.26814   0.27221
 Alpha virt. eigenvalues --    0.27677   0.27869   0.28070   0.29195   0.29811
 Alpha virt. eigenvalues --    0.31143   0.31484   0.32025   0.32157   0.32543
 Alpha virt. eigenvalues --    0.33162   0.33976   0.34155   0.34601   0.34835
 Alpha virt. eigenvalues --    0.35619   0.36025   0.36348   0.36775   0.37020
 Alpha virt. eigenvalues --    0.38812   0.39404   0.40186   0.40211   0.40516
 Alpha virt. eigenvalues --    0.40986   0.41535   0.42241   0.43034   0.43237
 Alpha virt. eigenvalues --    0.44910   0.45182   0.45949   0.46154   0.47809
 Alpha virt. eigenvalues --    0.48153   0.48625   0.49288   0.50525   0.51555
 Alpha virt. eigenvalues --    0.52757   0.53467   0.54010   0.55003   0.55289
 Alpha virt. eigenvalues --    0.56456   0.56849   0.57604   0.57755   0.58563
 Alpha virt. eigenvalues --    0.58710   0.58829   0.59001   0.59532   0.60117
 Alpha virt. eigenvalues --    0.60200   0.60678   0.60709   0.61211   0.61303
 Alpha virt. eigenvalues --    0.61725   0.62521   0.62739   0.62848   0.63220
 Alpha virt. eigenvalues --    0.63420   0.63783   0.63804   0.64094   0.64594
 Alpha virt. eigenvalues --    0.64731   0.64968   0.65478   0.65613   0.66051
 Alpha virt. eigenvalues --    0.66291   0.66392   0.66417   0.66826   0.67162
 Alpha virt. eigenvalues --    0.67376   0.67426   0.67661   0.67866   0.68006
 Alpha virt. eigenvalues --    0.68213   0.68362   0.68877   0.69426   0.69564
 Alpha virt. eigenvalues --    0.69859   0.70502   0.70919   0.71223   0.72132
 Alpha virt. eigenvalues --    0.72416   0.73190   0.74270   0.75356   0.75615
 Alpha virt. eigenvalues --    0.76263   0.76534   0.77255   0.78643   0.78911
 Alpha virt. eigenvalues --    0.79186   0.79887   0.81477   0.81999   0.82562
 Alpha virt. eigenvalues --    0.82689   0.83920   0.84575   0.84929   0.85697
 Alpha virt. eigenvalues --    0.85942   0.86284   0.86885   0.87515   0.87654
 Alpha virt. eigenvalues --    0.87858   0.87973   0.88086   0.88244   0.88525
 Alpha virt. eigenvalues --    0.88805   0.88935   0.89189   0.89790   0.90292
 Alpha virt. eigenvalues --    0.90479   0.90652   0.90793   0.91320   0.91932
 Alpha virt. eigenvalues --    0.91949   0.92086   0.92300   0.92655   0.93534
 Alpha virt. eigenvalues --    0.93631   0.93801   0.95151   0.95301   0.95718
 Alpha virt. eigenvalues --    0.95927   0.96227   0.96251   0.96795   0.97441
 Alpha virt. eigenvalues --    0.97797   0.98226   0.98748   0.99035   0.99452
 Alpha virt. eigenvalues --    0.99577   1.01519   1.01587   1.01985   1.02081
 Alpha virt. eigenvalues --    1.03765   1.03938   1.05874   1.06196   1.06424
 Alpha virt. eigenvalues --    1.06778   1.06825   1.08174   1.08973   1.09291
 Alpha virt. eigenvalues --    1.09994   1.10403   1.10785   1.11813   1.12462
 Alpha virt. eigenvalues --    1.12628   1.12844   1.13927   1.14324   1.15157
 Alpha virt. eigenvalues --    1.16030   1.17432   1.18345   1.18365   1.19855
 Alpha virt. eigenvalues --    1.20316   1.20997   1.21256   1.21723   1.22086
 Alpha virt. eigenvalues --    1.23307   1.24342   1.24588   1.25035   1.25287
 Alpha virt. eigenvalues --    1.25558   1.26185   1.26739   1.27421   1.27996
 Alpha virt. eigenvalues --    1.28549   1.29193   1.29858   1.30443   1.31217
 Alpha virt. eigenvalues --    1.32032   1.32482   1.33641   1.33817   1.34462
 Alpha virt. eigenvalues --    1.35608   1.36201   1.36465   1.36987   1.37477
 Alpha virt. eigenvalues --    1.38837   1.39320   1.40176   1.41494   1.41769
 Alpha virt. eigenvalues --    1.42046   1.42459   1.42927   1.43181   1.43391
 Alpha virt. eigenvalues --    1.43514   1.43689   1.43874   1.44125   1.45168
 Alpha virt. eigenvalues --    1.45904   1.46221   1.46848   1.47253   1.47446
 Alpha virt. eigenvalues --    1.47569   1.47762   1.47969   1.48378   1.48634
 Alpha virt. eigenvalues --    1.49094   1.49425   1.49638   1.49864   1.50072
 Alpha virt. eigenvalues --    1.52631   1.53322   1.55579   1.57049   1.58716
 Alpha virt. eigenvalues --    1.60199   1.63036   1.65128   1.65587   1.66403
 Alpha virt. eigenvalues --    1.67322   1.67815   1.68783   1.69032   1.71460
 Alpha virt. eigenvalues --    1.72205   1.76246   1.76652   1.77787   1.78625
 Alpha virt. eigenvalues --    1.79734   1.80029   1.81466   1.81902   1.82255
 Alpha virt. eigenvalues --    1.82929   1.83731   1.84402   1.84631   1.84907
 Alpha virt. eigenvalues --    1.85404   1.86031   1.86436   1.87521   1.88247
 Alpha virt. eigenvalues --    1.88431   1.89059   1.89400   1.90073   1.90610
 Alpha virt. eigenvalues --    1.91643   1.92124   1.92484   1.93492   1.93885
 Alpha virt. eigenvalues --    1.95028   1.95646   1.96173   1.96985   1.97212
 Alpha virt. eigenvalues --    1.97451   1.97584   1.97990   1.98614   1.98891
 Alpha virt. eigenvalues --    1.99381   1.99392   2.00230   2.00648   2.00735
 Alpha virt. eigenvalues --    2.01406   2.01980   2.02177   2.03193   2.03312
 Alpha virt. eigenvalues --    2.03432   2.03743   2.03882   2.04373   2.04568
 Alpha virt. eigenvalues --    2.04941   2.05478   2.05859   2.06328   2.06472
 Alpha virt. eigenvalues --    2.07238   2.07734   2.07920   2.08165   2.08618
 Alpha virt. eigenvalues --    2.08951   2.09249   2.10421   2.11027   2.11458
 Alpha virt. eigenvalues --    2.11762   2.12316   2.12524   2.14230   2.15053
 Alpha virt. eigenvalues --    2.15580   2.16579   2.17665   2.18055   2.19415
 Alpha virt. eigenvalues --    2.20021   2.20131   2.20650   2.21749   2.22697
 Alpha virt. eigenvalues --    2.24518   2.24994   2.26322   2.27944   2.29279
 Alpha virt. eigenvalues --    2.30137   2.30757   2.30984   2.31727   2.32759
 Alpha virt. eigenvalues --    2.33028   2.33185   2.33875   2.34675   2.35512
 Alpha virt. eigenvalues --    2.36127   2.36588   2.37443   2.39944   2.40440
 Alpha virt. eigenvalues --    2.40697   2.41051   2.41317   2.41559   2.42028
 Alpha virt. eigenvalues --    2.42404   2.42654   2.43243   2.43536   2.44403
 Alpha virt. eigenvalues --    2.44917   2.45351   2.45569   2.45817   2.46017
 Alpha virt. eigenvalues --    2.46771   2.46936   2.47389   2.47605   2.48330
 Alpha virt. eigenvalues --    2.48767   2.48955   2.50050   2.50730   2.50959
 Alpha virt. eigenvalues --    2.51286   2.51858   2.52603   2.53117   2.53366
 Alpha virt. eigenvalues --    2.54702   2.55005   2.55440   2.55869   2.56197
 Alpha virt. eigenvalues --    2.56770   2.56832   2.57492   2.57828   2.58052
 Alpha virt. eigenvalues --    2.58719   2.59705   2.60222   2.60336   2.61074
 Alpha virt. eigenvalues --    2.61900   2.62251   2.63218   2.63733   2.63796
 Alpha virt. eigenvalues --    2.64322   2.64598   2.64981   2.65234   2.66030
 Alpha virt. eigenvalues --    2.66353   2.66708   2.67239   2.67621   2.68653
 Alpha virt. eigenvalues --    2.69205   2.69641   2.70484   2.70910   2.71160
 Alpha virt. eigenvalues --    2.71989   2.73377   2.75126   2.75413   2.76463
 Alpha virt. eigenvalues --    2.76636   2.76958   2.78069   2.78561   2.79647
 Alpha virt. eigenvalues --    2.80428   2.81359   2.81599   2.81925   2.82881
 Alpha virt. eigenvalues --    2.83440   2.84423   2.84861   2.85154   2.87266
 Alpha virt. eigenvalues --    2.88397   2.90501   2.91052   2.92079   2.93444
 Alpha virt. eigenvalues --    2.95412   2.97739   2.98551   2.98923   2.99365
 Alpha virt. eigenvalues --    3.00359   3.00713   3.02024   3.02357   3.02979
 Alpha virt. eigenvalues --    3.07532   3.09651   3.10936   3.15618   3.17469
 Alpha virt. eigenvalues --    3.21281   3.22122   3.23156   3.24896   3.26389
 Alpha virt. eigenvalues --    3.26728   3.28360   3.28974   3.29932   3.30251
 Alpha virt. eigenvalues --    3.30941   3.32181   3.32389   3.32847   3.32978
 Alpha virt. eigenvalues --    3.33385   3.33863   3.36129   3.38379   3.38496
 Alpha virt. eigenvalues --    3.38690   3.44284   3.44976   3.45119   3.45371
 Alpha virt. eigenvalues --    3.45992   3.49919   3.50309   3.50832   3.54648
 Alpha virt. eigenvalues --    3.55304   3.56611   3.58562   3.59017   3.75155
 Alpha virt. eigenvalues --    3.89312   3.89644   3.90054   3.95578   3.97819
 Alpha virt. eigenvalues --    3.98147   4.12293   4.14823   4.16423   4.18679
 Alpha virt. eigenvalues --    4.19156   4.19673   4.22036   4.22762   4.23645
 Alpha virt. eigenvalues --    4.24121   4.25354   4.25805   4.26618   4.27702
 Alpha virt. eigenvalues --    4.28249   4.29816   4.32126   4.32578   4.38187
 Alpha virt. eigenvalues --    4.41040   4.43413   4.47067   4.48309   4.49191
 Alpha virt. eigenvalues --    4.51542   4.52955   4.53660   4.56131   4.57226
 Alpha virt. eigenvalues --    4.61661   4.62188   4.64838   4.66253   4.81220
 Alpha virt. eigenvalues --    4.85190   4.90467   4.92169   4.95884   5.02953
 Alpha virt. eigenvalues --    5.04149
          Condensed to atoms (all electrons):
 Mulliken charges:
               1
     1  C    0.197938
     2  C    0.199837
     3  C   -0.108656
     4  C   -0.205813
     5  C   -0.108017
     6  C   -0.141144
     7  S    1.165958
     8  O   -0.570011
     9  H    0.204114
    10  H    0.186230
    11  H    0.178554
    12  N   -0.714153
    13  C    0.294185
    14  C    0.301113
    15  C   -0.134593
    16  C    0.033762
    17  C   -0.162688
    18  C    0.041603
    19  C   -0.129012
    20  H    0.127764
    21  C   -0.168760
    22  C   -0.139731
    23  H    0.126203
    24  C   -0.160253
    25  C   -0.147868
    26  H    0.128423
    27  H    0.130558
    28  C   -0.148780
    29  H    0.124636
    30  H    0.133470
    31  H    0.123399
    32  H    0.123295
    33  N   -0.708921
    34  C    0.303778
    35  C    0.294919
    36  C   -0.157798
    37  C    0.045388
    38  C   -0.133393
    39  C    0.036460
    40  C   -0.139723
    41  H    0.128490
    42  C   -0.166046
    43  C   -0.129197
    44  H    0.121579
    45  C   -0.170378
    46  C   -0.147928
    47  H    0.128909
    48  H    0.134093
    49  C   -0.149197
    50  H    0.127129
    51  H    0.131637
    52  H    0.124421
    53  H    0.123026
    54  O   -0.568756
    55  C   -0.190611
    56  C   -0.116394
    57  C   -0.114707
    58  C   -0.132175
    59  H    0.176332
    60  C   -0.131499
    61  H    0.171238
    62  C   -0.121555
    63  H    0.151276
    64  H    0.149236
    65  H    0.148806
 Sum of Mulliken charges =  -0.00000
 Mulliken charges with hydrogens summed into heavy atoms:
               1
     1  C    0.197938
     2  C    0.199837
     3  C    0.095458
     4  C   -0.205813
     5  C    0.078213
     6  C    0.037410
     7  S    1.165958
     8  O   -0.570011
    12  N   -0.714153
    13  C    0.294185
    14  C    0.301113
    15  C   -0.006829
    16  C    0.033762
    17  C   -0.036485
    18  C    0.041603
    19  C   -0.000589
    21  C   -0.038202
    22  C   -0.015095
    24  C   -0.026783
    25  C   -0.024470
    28  C   -0.025485
    33  N   -0.708921
    34  C    0.303778
    35  C    0.294919
    36  C   -0.029308
    37  C    0.045388
    38  C   -0.011813
    39  C    0.036460
    40  C   -0.010814
    42  C   -0.031954
    43  C   -0.002068
    45  C   -0.038742
    46  C   -0.023507
    49  C   -0.026171
    54  O   -0.568756
    55  C   -0.190611
    56  C    0.059937
    57  C    0.056531
    58  C    0.019101
    60  C    0.017737
    62  C    0.027252
 Electronic spatial extent (au):  <R**2>=          19387.9434
 Charge=             -0.0000 electrons
 Dipole moment (field-independent basis, Debye):
    X=             -0.3179    Y=              3.6260    Z=              3.0242  Tot=              4.7323
 Quadrupole moment (field-independent basis, Debye-Ang):
   XX=           -228.4660   YY=           -228.3303   ZZ=           -241.8875
   XY=             25.0119   XZ=             19.3536   YZ=             -2.5770
 Traceless Quadrupole moment (field-independent basis, Debye-Ang):
   XX=              4.4286   YY=              4.5643   ZZ=             -8.9929
   XY=             25.0119   XZ=             19.3536   YZ=             -2.5770
 Octapole moment (field-independent basis, Debye-Ang**2):
  XXX=            -66.0652  YYY=             40.8887  ZZZ=             16.7700  XYY=            -37.4509
  XXY=            152.8175  XXZ=             50.5940  XZZ=             45.2301  YZZ=             -2.0063
  YYZ=              5.4096  XYZ=            -27.9236
 Hexadecapole moment (field-independent basis, Debye-Ang**3):
 XXXX=         -16319.5693 YYYY=          -5776.7822 ZZZZ=          -3486.0265 XXXY=            763.4489
 XXXZ=            501.9192 YYYX=            192.9675 YYYZ=             84.6212 ZZZX=            154.6334
 ZZZY=            -16.6403 XXYY=          -3732.2410 XXZZ=          -3291.6307 YYZZ=          -1591.6982
 XXYZ=            -25.5713 YYXZ=             83.2370 ZZXY=             -3.3705
 N-N= 4.873319903396D+03 E-N=-1.450982536324D+04  KE= 2.027396955262D+03
 No NMR shielding tensors so no spin-rotation constants.
 Leave Link  601 at Sat Aug 10 05:00:23 2024, MaxMem=  2147483648 cpu:              18.5 elap:               2.4
 (Enter /apps/gaussian/g16/l9999.exe)
 Electronic transition elements 
                 1             2             3             4 
      1  -0.204388D+04 -0.204390D+04 -0.204387D+04 -0.204386D+04
      2   0.225156D+00 -0.231708D+00  0.118471D-01 -0.144980D+00
      3  -0.560063D-01  0.108378D-02 -0.133713D-01 -0.996320D-02
      4  -0.942204D-01  0.106222D+00  0.345448D-01 -0.197542D-01
      5  -0.608605D-02  0.137775D-01 -0.204156D-02  0.785430D-02
      6  -0.148157D-02  0.461646D-02  0.163064D-02  0.291329D-02
      7  -0.261223D-02  0.123841D-01 -0.361621D-02 -0.459374D-02
      8  -0.264947D+00  0.958235D-01 -0.583919D-01  0.444525D-01
      9   0.258262D-01  0.671495D-01  0.598140D-01  0.133230D-01
     10  -0.246133D-01  0.817431D-01 -0.341395D-02  0.225466D-01
     11  -0.990683D-01  0.101174D+00  0.863840D-02  0.551400D-01
     12  -0.218928D-01 -0.424073D-01 -0.380377D-02 -0.269052D-01
     13  -0.231793D-02  0.124160D-01 -0.324599D-01 -0.287617D-01
     14   0.694988D-01 -0.286909D-01 -0.342771D-01 -0.198673D-01
     15  -0.109584D-01  0.405649D-01  0.242020D-01  0.284229D-01
     16   0.483054D-01 -0.600726D-01  0.253015D-01 -0.225698D-01

 Test job not archived.
 1\1\GINC-PMLP-HPCCLSAP04\FOpt\RwB97XD TDA-FC\6-31G(d,p)\C36H24N2O2S1\W
 ILLIAM1\10-Aug-2024\0\\#p opt wB97XD/6-31G** iop(3/107=0136000000,3/10
 8=0136000000) TDA=(singlets, nstates=4, root=2)\\Tuning input file gen
 erated by xtune with parameters: w01360\\0,1\C,-0.0859070439,-1.071119
 7712,0.7264202007\C,0.3627750277,-0.3657481091,-0.4406232093\C,1.55851
 28764,-0.6407672234,-1.0384969474\C,2.3532565804,-1.7046759421,-0.5308
 446182\C,1.900028208,-2.4482411805,0.6112946913\C,0.7017913835,-2.1562
 570897,1.2082597067\S,3.964131448,-1.9144833657,-1.133353878\O,4.01987
 85687,-1.3930865066,-2.5068733845\H,1.8972636874,-0.0665527408,-1.8935
 630326\H,2.5127012794,-3.2636076067,0.9775552898\H,0.3464865754,-2.743
 1751614,2.048971192\N,-0.4813277744,0.7133417297,-0.8861095872\C,-1.63
 35586224,0.5823489433,-1.6428693087\C,-0.4658961187,1.9751756526,-0.32
 25177902\C,-2.0365338064,-0.5015471842,-2.4234068522\C,-2.4121735981,1
 .759060467,-1.5218573921\C,0.5172371141,2.5424260257,0.4907696915\C,-1
 .6532265619,2.6644170829,-0.6722078076\C,-3.2733137058,-0.4058367048,-
 3.0576279776\H,-1.3952986888,-1.3660692306,-2.540908476\C,-3.641459624
 9,1.8306319828,-2.1656480177\C,0.2899790888,3.8368841464,0.9560240833\
 H,1.4206211633,1.9932675103,0.729152576\C,-1.8625658685,3.9468732539,-
 0.1828975075\C,-4.0699557562,0.7363258093,-2.9240936039\H,-3.621561498
 ,-1.2331499424,-3.6656267158\H,-4.2617997049,2.716795381,-2.0810076738
 \C,-0.8828489649,4.5268772541,0.6311336794\H,1.0363289388,4.314525849,
 1.5813033758\H,-2.767033617,4.4941929047,-0.4264930832\H,-5.0281760824
 ,0.7804253075,-3.4302000966\H,-1.0336241977,5.5311407524,1.0121006283\
 N,-1.4675539001,-0.9062676785,1.0758346663\C,-2.5176351396,-1.59840180
 33,0.4987381334\C,-1.9902386556,0.1372054911,1.818347912\C,-2.45100816
 51,-2.7391917289,-0.302949577\C,-3.743099206,-0.9650303355,0.821007893
 7\C,-1.2989531073,1.0731154154,2.589398724\C,-3.3990681423,0.170595714
 1,1.6678954886\C,-3.6572767938,-3.2504747618,-0.785319172\H,-1.4970763
 96,-3.2027110724,-0.5237030089\C,-4.9254090121,-1.479847999,0.31573315
 77\C,-2.048240045,2.0816148408,3.1919847322\H,-0.2261577667,0.99824257
 83,2.7097480978\C,-4.1231905996,1.1854355087,2.2740885486\C,-4.8719837
 51,-2.6293288866,-0.4880425474\H,-3.6473172184,-4.1404459943,-1.404478
 8465\H,-5.8782491228,-1.0097119788,0.5344321143\C,-3.4352290892,2.1448
 957713,3.0301749669\H,-1.543784829,2.8324383197,3.789153629\H,-5.20061
 12024,1.2452148002,2.1623507644\H,-5.7933244254,-3.0435441733,-0.88262
 37466\H,-3.9914163889,2.9455379008,3.5053313481\O,4.4124989733,-3.2772
 669488,-0.8177760888\C,4.9898524794,-0.8099068865,-0.1455622956\C,5.17
 95314786,0.507474575,-0.5640077856\C,5.5189063411,-1.2600643141,1.0640
 741665\C,5.9021635494,1.3830528487,0.2428936535\H,4.7816324385,0.82334
 6765,-1.5220008837\C,6.2400605073,-0.3772977776,1.8643549346\H,5.37848
 90463,-2.2950633421,1.3548223502\C,6.4290125669,0.9440835729,1.4581489
 813\H,6.0634474195,2.4061029087,-0.0819674712\H,6.6620021615,-0.723317
 6343,2.8025384729\H,6.9948382896,1.6278530114,2.0828585325\\Version=ES
 64L-G16RevC.01\State=1-A\HF=-2044.0043893\RMSD=7.604e-09\RMSF=1.660e-0
 6\Dipole=-4.8326341,2.6016413,1.7783588\PG=C01 [X(C36H24N2O2S1)]\\@


 WHEN ALL ELSE FAILS, TRY THE BOSS'S SUGGESTION.
 Job cpu time:      15 days 23 hours 59 minutes 52.8 seconds.
 Elapsed time:       1 days 16 hours  3 minutes 10.5 seconds.
 File lengths (MBytes):  RWF=   2609 Int=      0 D2E=      0 Chk=    126 Scr=      1
 Normal termination of Gaussian 16 at Sat Aug 10 05:00:24 2024.
