 Entering Gaussian System, Link 0=g16
 Initial command:
 /apps/gaussian/g16/l1.exe "/local/Gau-3172.inp" -scrdir="/local/"
 Entering Link 1 = /apps/gaussian/g16/l1.exe PID=      3175.
  
 Copyright (c) 1988-2019, Gaussian, Inc.  All Rights Reserved.
  
 This is part of the Gaussian(R) 16 program.  It is based on
 the Gaussian(R) 09 system (copyright 2009, Gaussian, Inc.),
 the Gaussian(R) 03 system (copyright 2003, Gaussian, Inc.),
 the Gaussian(R) 98 system (copyright 1998, Gaussian, Inc.),
 the Gaussian(R) 94 system (copyright 1995, Gaussian, Inc.),
 the Gaussian 92(TM) system (copyright 1992, Gaussian, Inc.),
 the Gaussian 90(TM) system (copyright 1990, Gaussian, Inc.),
 the Gaussian 88(TM) system (copyright 1988, Gaussian, Inc.),
 the Gaussian 86(TM) system (copyright 1986, Carnegie Mellon
 University), and the Gaussian 82(TM) system (copyright 1983,
 Carnegie Mellon University). Gaussian is a federally registered
 trademark of Gaussian, Inc.
  
 This software contains proprietary and confidential information,
 including trade secrets, belonging to Gaussian, Inc.
  
 This software is provided under written license and may be
 used, copied, transmitted, or stored only in accord with that
 written license.
  
 The following legend is applicable only to US Government
 contracts under FAR:
  
                    RESTRICTED RIGHTS LEGEND
  
 Use, reproduction and disclosure by the US Government is
 subject to restrictions as set forth in subparagraphs (a)
 and (c) of the Commercial Computer Software - Restricted
 Rights clause in FAR 52.227-19.
  
 Gaussian, Inc.
 340 Quinnipiac St., Bldg. 40, Wallingford CT 06492
  
  
 ---------------------------------------------------------------
 Warning -- This program may not be used in any manner that
 competes with the business of Gaussian, Inc. or will provide
 assistance to any competitor of Gaussian, Inc.  The licensee
 of this program is prohibited from giving any competitor of
 Gaussian, Inc. access to this program.  By using this program,
 the user acknowledges that Gaussian, Inc. is engaged in the
 business of creating and licensing software in the field of
 computational chemistry and represents and warrants to the
 licensee that it is not a competitor of Gaussian, Inc. and that
 it will not use this program in any manner prohibited above.
 ---------------------------------------------------------------
  

 Cite this work as:
 Gaussian 16, Revision C.01,
 M. J. Frisch, G. W. Trucks, H. B. Schlegel, G. E. Scuseria, 
 M. A. Robb, J. R. Cheeseman, G. Scalmani, V. Barone, 
 G. A. Petersson, H. Nakatsuji, X. Li, M. Caricato, A. V. Marenich, 
 J. Bloino, B. G. Janesko, R. Gomperts, B. Mennucci, H. P. Hratchian, 
 J. V. Ortiz, A. F. Izmaylov, J. L. Sonnenberg, D. Williams-Young, 
 F. Ding, F. Lipparini, F. Egidi, J. Goings, B. Peng, A. Petrone, 
 T. Henderson, D. Ranasinghe, V. G. Zakrzewski, J. Gao, N. Rega, 
 G. Zheng, W. Liang, M. Hada, M. Ehara, K. Toyota, R. Fukuda, 
 J. Hasegawa, M. Ishida, T. Nakajima, Y. Honda, O. Kitao, H. Nakai, 
 T. Vreven, K. Throssell, J. A. Montgomery, Jr., J. E. Peralta, 
 F. Ogliaro, M. J. Bearpark, J. J. Heyd, E. N. Brothers, K. N. Kudin, 
 V. N. Staroverov, T. A. Keith, R. Kobayashi, J. Normand, 
 K. Raghavachari, A. P. Rendell, J. C. Burant, S. S. Iyengar, 
 J. Tomasi, M. Cossi, J. M. Millam, M. Klene, C. Adamo, R. Cammi, 
 J. W. Ochterski, R. L. Martin, K. Morokuma, O. Farkas, 
 J. B. Foresman, and D. J. Fox, Gaussian, Inc., Wallingford CT, 2019.
 
 ******************************************
 Gaussian 16:  ES64L-G16RevC.01  3-Jul-2019
                17-Aug-2024 
 ******************************************
 %chk=YZ-IX-165.chk
 %nprocshared=16
 Will use up to   16 processors via shared memory.
 %mem=16GB
 ----------------------------------------------------------------------
 #p opt=Restart wb97xd/6-31G** iop(3/107=0109400000,3/108=0109400000) T
 DA=(singlets, nstates=4, root=1)
 ----------------------------------------------------------------------
 1/18=20,19=15,26=3,35=1/3(2);
 2/9=110/2;
 99//99;
 2/9=110/2;
 3/5=1,6=6,7=101,11=9,25=1,30=1,71=1,74=-58,107=109400000,108=109400000/1,2,3,8;
 4/5=5,16=3,69=1/1;
 5/5=2,38=5/2;
 8/6=1,10=2,107=1,108=4/1;
 9/8=1,15=2,41=4,42=1,48=1,49=4/14;
 10/5=4,28=1/2;
 7/12=6,13=5,14=1/1,2,3,16;
 1/18=20,19=15,26=3/3(-8);
 2/9=110/2;
 6/7=2,8=2,9=2,10=2/1;
 99/9=10/99;
 Leave Link    1 at Sat Aug 17 00:59:24 2024, MaxMem=  2147483648 cpu:               1.6 elap:               0.1
 (Enter /apps/gaussian/g16/l103.exe)

 GradGradGradGradGradGradGradGradGradGradGradGradGradGradGradGradGradGrad
 Berny optimization.
 Restoring state from the checkpoint file "YZ-IX-165.chk".
 ONIOM results not found on unit 2.
 Title:  Tuning input file generated by xtune with parameters: w01094
 Route:  #p opt wb97xd/6-31G** iop(3/107=0109400000,3/108=0109400000) TDA=(single
 ts, nstates=4, root=1)
 FncErr=1.00D-07 GrdErr=1.00D-06 EigMax=2.50D+02 EigMin=1.00D-04
 Using GEDIIS/GDIIS optimizer.
 FormGI is forming the generalized inverse of G from B-inverse, IUseBI=4.
 Internal  Forces:  Max     0.000158370 RMS     0.000023395
 Search for a local minimum.
 Step number  16 out of a maximum of  930
 All quantities printed in internal units (Hartrees-Bohrs-Radians)
 RMS Force = .23395D-04 SwitMx=.10000D-02 MixMth= 2
 Mixed Optimization -- En-DIIS/RFO-DIIS
 Swapping is turned off.
 Update second derivatives using D2CorX and points   11   12   13   14   15
                                                     16
 DE= -1.28D-05 DEPred=-1.39D-05 R= 9.21D-01
 TightC=F SS=  1.41D+00  RLast= 4.89D-02 DXNew= 1.0362D+00 1.4656D-01
 Trust test= 9.21D-01 RLast= 4.89D-02 DXMaxT set to 6.16D-01
 ITU=  1  1  1  1  1  0  1  1  1  0 -1  0 -1 -1  1  0
     Eigenvalues ---    0.00227   0.00230   0.00230   0.00230   0.00230
     Eigenvalues ---    0.00230   0.00230   0.00230   0.00230   0.00231
     Eigenvalues ---    0.00231   0.00231   0.00239   0.00241   0.00244
     Eigenvalues ---    0.00245   0.00246   0.00246   0.00246   0.00248
     Eigenvalues ---    0.00250   0.00253   0.00265   0.00333   0.00476
     Eigenvalues ---    0.00745   0.00791   0.00996   0.01307   0.01308
     Eigenvalues ---    0.01310   0.01316   0.01331   0.01403   0.01531
     Eigenvalues ---    0.01630   0.01647   0.01705   0.01731   0.01736
     Eigenvalues ---    0.01756   0.01774   0.01779   0.01842   0.01863
     Eigenvalues ---    0.01893   0.01900   0.01906   0.01914   0.01934
     Eigenvalues ---    0.01937   0.01961   0.01970   0.01977   0.01985
     Eigenvalues ---    0.01995   0.02000   0.02014   0.02020   0.02046
     Eigenvalues ---    0.02048   0.02052   0.02054   0.02055   0.02059
     Eigenvalues ---    0.02077   0.02085   0.02086   0.02087   0.02090
     Eigenvalues ---    0.02099   0.02110   0.02128   0.02130   0.02133
     Eigenvalues ---    0.02135   0.02136   0.02145   0.02149   0.02153
     Eigenvalues ---    0.02158   0.02159   0.02162   0.02164   0.02166
     Eigenvalues ---    0.02166   0.02169   0.02170   0.02175   0.02176
     Eigenvalues ---    0.02178   0.02181   0.02183   0.02184   0.02188
     Eigenvalues ---    0.02203   0.02211   0.02214   0.02236   0.02311
     Eigenvalues ---    0.02497   0.02573   0.03687   0.04930   0.04932
     Eigenvalues ---    0.04940   0.04944   0.04961   0.04971   0.05003
     Eigenvalues ---    0.05055   0.05096   0.05109   0.05116   0.05123
     Eigenvalues ---    0.05182   0.05190   0.05194   0.05250   0.05251
     Eigenvalues ---    0.05263   0.05272   0.05277   0.05283   0.05289
     Eigenvalues ---    0.05293   0.05318   0.05325   0.05330   0.05337
     Eigenvalues ---    0.05369   0.05374   0.05377   0.05378   0.05379
     Eigenvalues ---    0.05380   0.05382   0.05400   0.05457   0.05479
     Eigenvalues ---    0.05479   0.05479   0.05480   0.05482   0.05484
     Eigenvalues ---    0.05487   0.05494   0.05530   0.05531   0.05537
     Eigenvalues ---    0.05540   0.05567   0.05570   0.05571   0.05587
     Eigenvalues ---    0.05600   0.05613   0.09225   0.09917   0.11221
     Eigenvalues ---    0.14660   0.14676   0.14681   0.14686   0.14691
     Eigenvalues ---    0.14767   0.14984   0.15194   0.15200   0.15224
     Eigenvalues ---    0.15244   0.15406   0.15520   0.15616   0.15760
     Eigenvalues ---    0.15934   0.15990   0.15994   0.15995   0.15997
     Eigenvalues ---    0.15998   0.15999   0.15999   0.15999   0.16000
     Eigenvalues ---    0.16000   0.16000   0.16000   0.16000   0.16000
     Eigenvalues ---    0.16000   0.16000   0.16000   0.16000   0.16000
     Eigenvalues ---    0.16000   0.16000   0.16000   0.16000   0.16000
     Eigenvalues ---    0.16000   0.16000   0.16000   0.16000   0.16000
     Eigenvalues ---    0.16000   0.16000   0.16000   0.16000   0.16000
     Eigenvalues ---    0.16000   0.16000   0.16000   0.16000   0.16000
     Eigenvalues ---    0.16000   0.16000   0.16000   0.16000   0.16000
     Eigenvalues ---    0.16000   0.16000   0.16000   0.16000   0.16000
     Eigenvalues ---    0.16000   0.16000   0.16000   0.16000   0.16000
     Eigenvalues ---    0.16000   0.16000   0.16000   0.16000   0.16000
     Eigenvalues ---    0.16000   0.16000   0.16000   0.16000   0.16000
     Eigenvalues ---    0.16000   0.16000   0.16001   0.16002   0.16008
     Eigenvalues ---    0.16014   0.16018   0.16021   0.16072   0.16120
     Eigenvalues ---    0.16275   0.16583   0.19466   0.20076   0.21196
     Eigenvalues ---    0.22003   0.22035   0.22439   0.22444   0.22447
     Eigenvalues ---    0.22448   0.22452   0.22468   0.23310   0.23493
     Eigenvalues ---    0.23498   0.23501   0.23507   0.23532   0.23554
     Eigenvalues ---    0.23574   0.23787   0.24060   0.24567   0.24611
     Eigenvalues ---    0.24614   0.24629   0.24683   0.24779   0.24877
     Eigenvalues ---    0.24913   0.24981   0.24982   0.24991   0.24996
     Eigenvalues ---    0.24998   0.24999   0.24999   0.25011   0.25016
     Eigenvalues ---    0.25042   0.25235   0.25241   0.25552   0.25756
     Eigenvalues ---    0.26563   0.27688   0.28042   0.28044   0.28045
     Eigenvalues ---    0.28046   0.28048   0.28048   0.28050   0.28052
     Eigenvalues ---    0.28052   0.28054   0.28062   0.28106   0.28528
     Eigenvalues ---    0.28559   0.28568   0.28575   0.28579   0.28580
     Eigenvalues ---    0.28585   0.28588   0.28599   0.28638   0.28699
     Eigenvalues ---    0.28825   0.29502   0.34180   0.34185   0.34190
     Eigenvalues ---    0.34197   0.34198   0.34200   0.34205   0.34208
     Eigenvalues ---    0.34213   0.34214   0.34215   0.34216   0.34281
     Eigenvalues ---    0.34282   0.34284   0.34286   0.34288   0.34290
     Eigenvalues ---    0.34297   0.34300   0.34302   0.34305   0.34309
     Eigenvalues ---    0.34314   0.34318   0.34327   0.34330   0.34331
     Eigenvalues ---    0.34332   0.34333   0.34334   0.34341   0.34341
     Eigenvalues ---    0.34345   0.34347   0.34350   0.34350   0.34351
     Eigenvalues ---    0.34351   0.34354   0.34355   0.34368   0.34396
     Eigenvalues ---    0.34397   0.34400   0.34401   0.34401   0.34405
     Eigenvalues ---    0.34407   0.34409   0.34411   0.34422   0.34432
     Eigenvalues ---    0.34460   0.35277   0.35325   0.35327   0.35339
     Eigenvalues ---    0.35343   0.35344   0.35379   0.35382   0.35396
     Eigenvalues ---    0.35444   0.35463   0.35471   0.35531   0.35543
     Eigenvalues ---    0.35553   0.35560   0.35569   0.35581   0.35597
     Eigenvalues ---    0.35603   0.35627   0.35640   0.35647   0.35655
     Eigenvalues ---    0.35662   0.35927   0.36228   0.36290   0.36422
     Eigenvalues ---    0.36622   0.36644   0.37143   0.38961   0.40248
     Eigenvalues ---    0.40345   0.40401   0.41915   0.42256   0.42281
     Eigenvalues ---    0.42308   0.42348   0.42409   0.42436   0.42472
     Eigenvalues ---    0.42517   0.42575   0.42798   0.43140   0.43151
     Eigenvalues ---    0.43213   0.43536   0.43671   0.43852   0.44258
     Eigenvalues ---    0.44673   0.44801   0.44934   0.45102   0.45285
     Eigenvalues ---    0.45293   0.45479   0.45552   0.45709   0.45711
     Eigenvalues ---    0.45720   0.45951   0.46257   0.46342   0.46465
     Eigenvalues ---    0.46503   0.46598   0.46605   0.46676   0.46684
     Eigenvalues ---    0.46688   0.46700   0.46721   0.46757   0.46831
     Eigenvalues ---    0.46885   0.46937   0.46974   0.47136   0.47271
     Eigenvalues ---    0.48742   0.56858   0.90086   0.90453   2.55538
 En-DIIS/RFO-DIIS/Sim-DIIS IScMMF=       -3 using points:    16   15   14   13   12
 RFO step:  Lambda=-1.01142418D-05.
 NNeg= 0 NGDIIS= 5 SimSw=  2.50D-01 Rises=F DC= -1.28D-05 SmlDif=  1.00D-05
 NRisDI= 0 DoIntr=F SqrtH=F CThrHd= 10.0 CDAdj=  3.0
 RMS Error=  0.1326957100D-02 NUsed= 5 OKEnD=T EnDIS=F
 InvSVX:  RCond= 1.11D-03 Info=           0 Equed=N FErr=  5.04D-15 BErr=  8.85D-17
 DidBck=F Rises=F RFO-DIIS coefs:    1.25509    0.02111   -0.18991   -0.12246    0.03617
 Iteration  1 RMS(Cart)=  0.01580458 RMS(Int)=  0.00001603
 Iteration  2 RMS(Cart)=  0.00006228 RMS(Int)=  0.00000117
 Iteration  3 RMS(Cart)=  0.00000000 RMS(Int)=  0.00000117
 ITry= 1 IFail=0 DXMaxC= 9.87D-02 DCOld= 1.00D+10 DXMaxT= 6.16D-01 DXLimC= 3.00D+00 Rises=F
 Variable       Old X    -DE/DX   Delta X   Delta X   Delta X     New X
                                 (Linear)    (Quad)   (Total)
    R1        2.62989   0.00002  -0.00017   0.00012  -0.00004   2.62984
    R2        2.67231  -0.00001   0.00000  -0.00001  -0.00001   2.67230
    R3        2.62867  -0.00000   0.00012  -0.00002   0.00010   2.62877
    R4        2.62992   0.00001  -0.00013   0.00011  -0.00002   2.62990
    R5        2.67301  -0.00002  -0.00004   0.00001  -0.00003   2.67298
    R6        2.62803  -0.00000   0.00004   0.00002   0.00006   2.62809
    R7        2.63221  -0.00001   0.00005  -0.00003   0.00002   2.63224
    R8        2.04929  -0.00000   0.00000  -0.00002  -0.00001   2.04927
    R9        2.74144  -0.00001   0.00003  -0.00009  -0.00007   2.74137
   R10        2.63548   0.00001   0.00000   0.00001   0.00002   2.63550
   R11        2.63232  -0.00001   0.00005  -0.00002   0.00002   2.63234
   R12        2.04933  -0.00001   0.00001  -0.00005  -0.00004   2.04929
   R13        2.63519   0.00001   0.00001   0.00001   0.00002   2.63521
   R14        2.66412  -0.00002  -0.00001  -0.00001  -0.00002   2.66410
   R15        2.04728   0.00001   0.00001  -0.00001   0.00000   2.04728
   R16        2.64521   0.00001   0.00003  -0.00001   0.00002   2.64523
   R17        2.05213  -0.00000   0.00000   0.00000   0.00000   2.05213
   R18        2.66383  -0.00002   0.00001  -0.00006  -0.00004   2.66379
   R19        2.04746   0.00000  -0.00000   0.00001   0.00000   2.04747
   R20        2.64538   0.00000   0.00002  -0.00000   0.00002   2.64540
   R21        2.05213  -0.00001   0.00001  -0.00002  -0.00002   2.05211
   R22        2.91043  -0.00002   0.00001  -0.00003  -0.00002   2.91041
   R23        2.91024  -0.00001   0.00004  -0.00003   0.00001   2.91025
   R24        2.65078   0.00016  -0.00000   0.00002   0.00002   2.65080
   R25        2.68140   0.00001  -0.00044   0.00049   0.00005   2.68145
   R26        2.67870   0.00001   0.00005   0.00002   0.00006   2.67877
   R27        2.60237  -0.00005  -0.00001   0.00020   0.00019   2.60256
   R28        2.05062  -0.00002   0.00009  -0.00007   0.00002   2.05064
   R29        2.75224  -0.00008  -0.00086   0.00049  -0.00037   2.75186
   R30        2.71721   0.00012  -0.00044   0.00032  -0.00013   2.71708
   R31        2.75308   0.00004  -0.00035  -0.00014  -0.00049   2.75259
   R32        3.35238  -0.00004   0.00069  -0.00012   0.00057   3.35294
   R33        2.59095   0.00006  -0.00005   0.00014   0.00009   2.59104
   R34        2.69361  -0.00004   0.00043  -0.00019   0.00024   2.69385
   R35        2.04949   0.00002  -0.00006   0.00004  -0.00002   2.04946
   R36        2.63588  -0.00004  -0.00021  -0.00001  -0.00022   2.63566
   R37        2.68012  -0.00003   0.00013  -0.00019  -0.00006   2.68005
   R38        2.59348  -0.00006   0.00042  -0.00019   0.00022   2.59370
   R39        2.62953   0.00003  -0.00005   0.00011   0.00006   2.62959
   R40        2.67645   0.00000   0.00013  -0.00002   0.00011   2.67656
   R41        2.60234  -0.00004  -0.00006  -0.00002  -0.00008   2.60225
   R42        2.63348   0.00003   0.00010  -0.00000   0.00009   2.63357
   R43        2.04399  -0.00001   0.00013  -0.00008   0.00005   2.04404
   R44        2.76736  -0.00005  -0.00031  -0.00003  -0.00034   2.76702
   R45        2.59957  -0.00004   0.00016  -0.00017  -0.00001   2.59956
   R46        2.63828   0.00002  -0.00007   0.00002  -0.00005   2.63823
   R47        2.04419  -0.00002   0.00007  -0.00006   0.00000   2.04419
   R48        2.60243  -0.00004   0.00006  -0.00010  -0.00004   2.60239
   R49        2.65211  -0.00001  -0.00014   0.00006  -0.00008   2.65204
   R50        2.04338  -0.00001   0.00010  -0.00010   0.00001   2.04339
   R51        2.68686   0.00004  -0.00014   0.00013  -0.00002   2.68685
   R52        2.04876   0.00001  -0.00002   0.00004   0.00002   2.04878
   R53        2.65098   0.00000  -0.00004   0.00009   0.00005   2.65102
   R54        2.04412   0.00000   0.00005  -0.00004   0.00002   2.04413
   R55        2.68352   0.00003  -0.00012   0.00006  -0.00006   2.68346
   R56        2.04899  -0.00000   0.00000   0.00000   0.00000   2.04899
   R57        2.89830  -0.00001   0.00007  -0.00008  -0.00000   2.89830
   R58        2.90038  -0.00003   0.00006  -0.00010  -0.00004   2.90033
   R59        2.63513  -0.00001  -0.00003  -0.00003  -0.00006   2.63507
   R60        2.66565  -0.00000   0.00005  -0.00003   0.00002   2.66567
   R61        2.62722  -0.00010   0.00011  -0.00019  -0.00008   2.62714
   R62        2.62830  -0.00000   0.00005  -0.00003   0.00002   2.62831
   R63        2.67041  -0.00001   0.00004  -0.00004   0.00000   2.67041
   R64        2.62423  -0.00004   0.00002  -0.00010  -0.00008   2.62416
   R65        2.62207   0.00003  -0.00008   0.00008   0.00000   2.62207
   R66        2.04637  -0.00000   0.00003  -0.00002   0.00000   2.04637
   R67        2.73712  -0.00000  -0.00015   0.00006  -0.00008   2.73703
   R68        2.64370   0.00000   0.00006  -0.00001   0.00004   2.64374
   R69        2.63088  -0.00002   0.00001  -0.00005  -0.00004   2.63084
   R70        2.04823   0.00002  -0.00004   0.00005   0.00001   2.04824
   R71        2.63415  -0.00003   0.00000  -0.00006  -0.00006   2.63409
   R72        2.67432   0.00001   0.00005  -0.00000   0.00005   2.67437
   R73        2.05124   0.00000   0.00001  -0.00000   0.00001   2.05124
   R74        2.63517   0.00002  -0.00007   0.00005  -0.00002   2.63515
   R75        2.04785  -0.00000  -0.00001   0.00001  -0.00000   2.04785
   R76        2.66323  -0.00002   0.00003  -0.00004  -0.00001   2.66322
   R77        2.04741   0.00002   0.00001   0.00003   0.00004   2.04746
   R78        2.64472   0.00003  -0.00016   0.00012  -0.00004   2.64468
   R79        2.05192  -0.00001   0.00003  -0.00002   0.00002   2.05194
   R80        2.90723  -0.00000  -0.00001  -0.00002  -0.00003   2.90720
   R81        2.90974  -0.00001  -0.00009   0.00001  -0.00008   2.90966
   R82        2.92030   0.00001  -0.00000   0.00003   0.00002   2.92033
   R83        2.92034   0.00001   0.00002   0.00002   0.00004   2.92038
   R84        2.90904  -0.00002  -0.00001  -0.00003  -0.00005   2.90899
   R85        2.92034   0.00001  -0.00000   0.00003   0.00003   2.92037
   R86        2.92028   0.00001   0.00000   0.00003   0.00003   2.92032
   R87        2.90900  -0.00001   0.00002  -0.00003  -0.00001   2.90899
   R88        2.92322  -0.00001  -0.00003  -0.00004  -0.00006   2.92316
   R89        2.92373   0.00001  -0.00002  -0.00001  -0.00003   2.92369
   R90        2.90789  -0.00002   0.00006  -0.00002   0.00003   2.90792
   R91        2.90793  -0.00000   0.00001   0.00003   0.00004   2.90797
   R92        2.92283  -0.00001  -0.00000  -0.00004  -0.00004   2.92279
   R93        2.92311  -0.00000  -0.00001  -0.00002  -0.00003   2.92308
   R94        2.92020   0.00002  -0.00005   0.00005   0.00000   2.92020
   R95        2.90897  -0.00004   0.00003  -0.00012  -0.00010   2.90887
   R96        2.91984   0.00002   0.00003   0.00002   0.00005   2.91989
   R97        2.92034  -0.00000   0.00001  -0.00001  -0.00000   2.92034
   R98        2.92064  -0.00003   0.00002  -0.00008  -0.00006   2.92057
   R99        2.90849   0.00001   0.00001   0.00001   0.00002   2.90851
   R100       3.38930  -0.00002   0.00018  -0.00022  -0.00004   3.38925
   R101       2.79488  -0.00010  -0.00035  -0.00002  -0.00037   2.79451
   R102       2.79284   0.00014   0.00014   0.00001   0.00015   2.79300
   R103       2.63594   0.00003   0.00006   0.00009   0.00015   2.63609
   R104       2.63046  -0.00003  -0.00044   0.00013  -0.00031   2.63015
   R105       2.62922  -0.00003  -0.00007  -0.00002  -0.00009   2.62913
   R106       2.04760   0.00000  -0.00006   0.00003  -0.00003   2.04757
   R107       2.63461   0.00003   0.00018  -0.00002   0.00017   2.63478
   R108       2.04677  -0.00003   0.00007  -0.00008  -0.00001   2.04676
   R109       2.63800   0.00002   0.00006   0.00004   0.00010   2.63810
   R110       2.04876   0.00001   0.00002  -0.00000   0.00002   2.04878
   R111       2.63352  -0.00003  -0.00015   0.00000  -0.00015   2.63337
   R112       2.04883   0.00001  -0.00005   0.00005   0.00000   2.04883
   R113       2.04964  -0.00003   0.00002  -0.00008  -0.00005   2.04959
   R114       2.07052   0.00001  -0.00001   0.00002   0.00001   2.07053
   R115       2.06649  -0.00000   0.00000  -0.00001  -0.00001   2.06648
   R116       2.06748  -0.00000  -0.00000  -0.00000  -0.00001   2.06747
   R117       2.06652   0.00000  -0.00001   0.00000  -0.00000   2.06652
   R118       2.07053   0.00000  -0.00001   0.00001   0.00000   2.07053
   R119       2.06782   0.00000  -0.00001   0.00001   0.00000   2.06782
   R120       2.06829   0.00000  -0.00001   0.00001   0.00000   2.06829
   R121       2.06855   0.00000  -0.00002   0.00001  -0.00000   2.06855
   R122       2.06822   0.00001   0.00000   0.00001   0.00002   2.06824
   R123       2.07053   0.00000  -0.00001   0.00001   0.00001   2.07054
   R124       2.06659  -0.00000  -0.00000  -0.00000  -0.00001   2.06659
   R125       2.06783   0.00000  -0.00001   0.00001   0.00000   2.06783
   R126       2.06651   0.00000  -0.00000   0.00001   0.00001   2.06652
   R127       2.07053   0.00000  -0.00001   0.00001   0.00000   2.07053
   R128       2.06745   0.00001  -0.00001   0.00002   0.00001   2.06746
   R129       2.06851   0.00000  -0.00000   0.00000  -0.00000   2.06851
   R130       2.06822   0.00000  -0.00001   0.00001  -0.00000   2.06822
   R131       2.06822   0.00001  -0.00000   0.00002   0.00002   2.06824
   R132       2.06636  -0.00001   0.00001  -0.00001  -0.00000   2.06636
   R133       2.07050   0.00000  -0.00001   0.00001   0.00001   2.07051
   R134       2.06757  -0.00000   0.00000  -0.00001  -0.00001   2.06756
   R135       2.06621   0.00002  -0.00001   0.00003   0.00002   2.06623
   R136       2.06798   0.00000  -0.00002   0.00001  -0.00001   2.06797
   R137       2.07050   0.00000  -0.00000   0.00001   0.00001   2.07051
   R138       2.06865  -0.00000  -0.00001  -0.00001  -0.00001   2.06863
   R139       2.06836  -0.00000   0.00001  -0.00000   0.00001   2.06836
   R140       2.06819   0.00000  -0.00001   0.00001   0.00001   2.06819
   R141       2.06636  -0.00001   0.00002  -0.00001   0.00000   2.06636
   R142       2.07057   0.00001  -0.00000   0.00003   0.00003   2.07060
   R143       2.06746   0.00000   0.00001   0.00000   0.00001   2.06747
   R144       2.06875  -0.00001   0.00001  -0.00001  -0.00000   2.06875
   R145       2.06823   0.00001  -0.00002   0.00002   0.00000   2.06823
   R146       2.06829   0.00000   0.00000   0.00000   0.00001   2.06830
   R147       2.06740   0.00001  -0.00007   0.00006  -0.00001   2.06739
   R148       2.07062  -0.00001   0.00000  -0.00002  -0.00002   2.07060
   R149       2.06633  -0.00000  -0.00002  -0.00000  -0.00002   2.06632
   R150       2.06782  -0.00000   0.00002  -0.00002   0.00001   2.06783
   R151       2.06759   0.00000   0.00002   0.00000   0.00002   2.06762
   R152       2.06623  -0.00001   0.00000  -0.00002  -0.00002   2.06622
   R153       2.06790  -0.00000  -0.00001  -0.00001  -0.00002   2.06788
   R154       2.06631   0.00000   0.00000   0.00002   0.00002   2.06633
   R155       2.06695  -0.00000   0.00000  -0.00001  -0.00000   2.06694
   R156       2.06651  -0.00000   0.00001  -0.00001  -0.00000   2.06651
   R157       2.06618  -0.00000   0.00002  -0.00000   0.00001   2.06619
   R158       2.06798  -0.00000  -0.00001  -0.00002  -0.00002   2.06795
   R159       2.06640   0.00001   0.00001   0.00003   0.00004   2.06644
   R160       2.06781  -0.00000   0.00000  -0.00002  -0.00002   2.06779
   R161       2.06696  -0.00000   0.00001  -0.00001  -0.00000   2.06696
   R162       2.06617  -0.00000   0.00002  -0.00002   0.00000   2.06617
   R163       2.06794  -0.00000  -0.00000  -0.00002  -0.00002   2.06792
   R164       2.06627  -0.00001   0.00002  -0.00003  -0.00000   2.06627
   R165       2.06721  -0.00000   0.00004  -0.00002   0.00002   2.06723
   R166       2.06775  -0.00001   0.00002  -0.00002   0.00000   2.06776
   R167       2.06625  -0.00001   0.00001  -0.00003  -0.00001   2.06624
    A1        2.11381   0.00004   0.00025  -0.00005   0.00021   2.11402
    A2        2.25798  -0.00004  -0.00024   0.00003  -0.00021   2.25777
    A3        1.91139   0.00000  -0.00001   0.00002   0.00001   1.91139
    A4        2.11331   0.00003   0.00034  -0.00014   0.00020   2.11351
    A5        2.25869  -0.00003  -0.00037   0.00013  -0.00024   2.25845
    A6        1.91118   0.00001   0.00003   0.00001   0.00004   1.91122
    A7        2.05711  -0.00001  -0.00008   0.00001  -0.00007   2.05704
    A8        2.11099  -0.00002  -0.00019   0.00007  -0.00012   2.11087
    A9        2.11506   0.00003   0.00027  -0.00008   0.00019   2.11525
   A10        1.85784   0.00000   0.00002   0.00001   0.00003   1.85787
   A11        2.08753  -0.00003  -0.00018   0.00003  -0.00015   2.08738
   A12        2.33782   0.00003   0.00017  -0.00004   0.00012   2.33794
   A13        2.05759   0.00001  -0.00015   0.00012  -0.00003   2.05757
   A14        2.11031  -0.00003  -0.00016  -0.00004  -0.00020   2.11011
   A15        2.11526   0.00003   0.00031  -0.00008   0.00023   2.11548
   A16        1.85794  -0.00000   0.00000   0.00000   0.00000   1.85794
   A17        2.08754  -0.00004  -0.00022   0.00003  -0.00019   2.08735
   A18        2.33770   0.00004   0.00022  -0.00003   0.00019   2.33789
   A19        2.14232  -0.00002  -0.00010  -0.00000  -0.00010   2.14222
   A20        2.05132   0.00002   0.00026  -0.00008   0.00018   2.05150
   A21        2.08954  -0.00000  -0.00016   0.00008  -0.00008   2.08946
   A22        2.10514  -0.00001  -0.00001  -0.00002  -0.00003   2.10511
   A23        2.07793   0.00001   0.00001   0.00005   0.00006   2.07800
   A24        2.10011  -0.00000   0.00000  -0.00004  -0.00004   2.10008
   A25        2.14209  -0.00003  -0.00007  -0.00006  -0.00013   2.14196
   A26        2.05255   0.00004   0.00016   0.00008   0.00024   2.05279
   A27        2.08854  -0.00001  -0.00009  -0.00003  -0.00011   2.08842
   A28        2.10531   0.00000  -0.00001   0.00003   0.00003   2.10534
   A29        2.07792   0.00001   0.00006  -0.00000   0.00005   2.07798
   A30        2.09994  -0.00001  -0.00005  -0.00003  -0.00008   2.09986
   A31        2.06046   0.00004   0.00012   0.00003   0.00014   2.06060
   A32        2.13815  -0.00005  -0.00012  -0.00002  -0.00013   2.13802
   A33        2.08457   0.00002  -0.00000  -0.00001  -0.00001   2.08456
   A34        2.06052   0.00003   0.00012   0.00001   0.00013   2.06064
   A35        2.13798  -0.00004  -0.00005  -0.00006  -0.00011   2.13787
   A36        2.08468   0.00001  -0.00007   0.00005  -0.00002   2.08466
   A37        2.05737  -0.00002  -0.00002   0.00002  -0.00000   2.05737
   A38        2.10721  -0.00008  -0.00014  -0.00014  -0.00028   2.10692
   A39        2.11856   0.00010   0.00017   0.00013   0.00029   2.11886
   A40        2.11173  -0.00008   0.00003  -0.00018  -0.00015   2.11158
   A41        2.08434   0.00002   0.00015  -0.00001   0.00014   2.08448
   A42        2.08704   0.00006  -0.00020   0.00020  -0.00000   2.08704
   A43        2.15712   0.00009   0.00002   0.00002   0.00004   2.15717
   A44        2.02102  -0.00005   0.00010  -0.00041  -0.00031   2.02071
   A45        2.10360  -0.00005  -0.00013   0.00034   0.00021   2.10381
   A46        1.97223   0.00003  -0.00001   0.00018   0.00017   1.97240
   A47        2.05327  -0.00004  -0.00070   0.00063  -0.00008   2.05319
   A48        2.09296  -0.00002  -0.00008  -0.00032  -0.00042   2.09254
   A49        2.14471  -0.00008   0.00025  -0.00027  -0.00002   2.14470
   A50        2.08138   0.00016   0.00011   0.00040   0.00050   2.08188
   A51        2.05463  -0.00008  -0.00013  -0.00039  -0.00052   2.05410
   A52        2.12221   0.00005  -0.00025   0.00022  -0.00003   2.12218
   A53        2.08649  -0.00000  -0.00007   0.00015   0.00008   2.08657
   A54        2.07410  -0.00005   0.00034  -0.00040  -0.00006   2.07404
   A55        2.13049   0.00002  -0.00027   0.00021  -0.00006   2.13042
   A56        2.24241  -0.00003   0.00050  -0.00035   0.00015   2.24255
   A57        1.91024   0.00001  -0.00023   0.00015  -0.00008   1.91015
   A58        2.13150   0.00000  -0.00015   0.00004  -0.00011   2.13139
   A59        2.24113   0.00000   0.00025  -0.00011   0.00014   2.24127
   A60        1.91053  -0.00000  -0.00010   0.00007  -0.00003   1.91051
   A61        2.04700  -0.00000   0.00012  -0.00007   0.00005   2.04705
   A62        2.11012   0.00003   0.00012   0.00014   0.00026   2.11039
   A63        2.12560  -0.00003  -0.00024  -0.00007  -0.00031   2.12529
   A64        1.84942  -0.00000   0.00013  -0.00002   0.00011   1.84953
   A65        2.08413   0.00001   0.00014  -0.00006   0.00008   2.08420
   A66        2.34958  -0.00000  -0.00027   0.00008  -0.00019   2.34939
   A67        2.04701  -0.00001   0.00013  -0.00005   0.00007   2.04709
   A68        2.10893   0.00002   0.00011   0.00005   0.00016   2.10909
   A69        2.12723  -0.00001  -0.00024   0.00000  -0.00024   2.12699
   A70        1.84782  -0.00001   0.00012  -0.00009   0.00004   1.84786
   A71        2.08408   0.00001  -0.00000   0.00004   0.00004   2.08412
   A72        2.35125  -0.00000  -0.00012   0.00004  -0.00008   2.35117
   A73        2.13611  -0.00001   0.00014  -0.00012   0.00002   2.13613
   A74        2.05538  -0.00001  -0.00024  -0.00003  -0.00027   2.05511
   A75        2.09163   0.00003   0.00010   0.00015   0.00025   2.09188
   A76        2.09626  -0.00001   0.00003  -0.00004  -0.00002   2.09624
   A77        2.09322  -0.00002   0.00012  -0.00019  -0.00007   2.09315
   A78        2.09367   0.00003  -0.00014   0.00023   0.00009   2.09376
   A79        2.13566  -0.00001   0.00001  -0.00004  -0.00003   2.13563
   A80        2.05681   0.00002  -0.00020   0.00014  -0.00005   2.05675
   A81        2.09071  -0.00001   0.00019  -0.00010   0.00008   2.09079
   A82        2.09665  -0.00000   0.00006  -0.00004   0.00002   2.09667
   A83        2.09239  -0.00002   0.00004  -0.00014  -0.00010   2.09230
   A84        2.09412   0.00002  -0.00011   0.00019   0.00008   2.09420
   A85        2.07236  -0.00000  -0.00016   0.00010  -0.00006   2.07230
   A86        2.13836  -0.00003   0.00008  -0.00006   0.00002   2.13837
   A87        2.07242   0.00003   0.00008  -0.00003   0.00005   2.07247
   A88        2.07146   0.00001  -0.00004   0.00005   0.00001   2.07147
   A89        2.13851  -0.00005  -0.00000  -0.00009  -0.00010   2.13842
   A90        2.07321   0.00004   0.00004   0.00004   0.00009   2.07329
   A91        2.11629   0.00001  -0.00016   0.00008  -0.00008   2.11620
   A92        2.25847  -0.00001   0.00036  -0.00016   0.00019   2.25866
   A93        1.90801   0.00000  -0.00013   0.00004  -0.00009   1.90792
   A94        2.11609  -0.00001  -0.00021   0.00006  -0.00015   2.11594
   A95        2.25892   0.00001   0.00017  -0.00005   0.00013   2.25904
   A96        1.90817  -0.00000   0.00003  -0.00001   0.00002   1.90819
   A97        2.05068  -0.00001   0.00014  -0.00010   0.00004   2.05072
   A98        2.11117   0.00001   0.00016  -0.00003   0.00012   2.11129
   A99        2.12093   0.00000  -0.00027   0.00010  -0.00017   2.12076
   A100       1.86053  -0.00001   0.00016  -0.00007   0.00008   1.86061
   A101       2.09121   0.00001   0.00006   0.00002   0.00007   2.09129
   A102       2.33125   0.00000  -0.00020   0.00006  -0.00014   2.33111
   A103       2.05698   0.00001   0.00005  -0.00000   0.00005   2.05703
   A104       2.10928   0.00001   0.00008   0.00005   0.00012   2.10941
   A105       2.11690  -0.00001  -0.00013  -0.00004  -0.00017   2.11673
   A106       1.85814  -0.00002  -0.00006   0.00001  -0.00006   1.85809
   A107       2.08544   0.00002   0.00016  -0.00000   0.00016   2.08559
   A108       2.33960  -0.00001  -0.00008  -0.00001  -0.00010   2.33950
   A109       2.14744   0.00001  -0.00000   0.00005   0.00004   2.14749
   A110       2.05470   0.00000   0.00001   0.00001   0.00002   2.05472
   A111       2.08103  -0.00001  -0.00001  -0.00005  -0.00006   2.08096
   A112       2.09909  -0.00001   0.00003  -0.00004  -0.00001   2.09908
   A113       2.07465  -0.00002  -0.00018   0.00000  -0.00017   2.07448
   A114       2.10943   0.00002   0.00015   0.00004   0.00018   2.10962
   A115       2.14048  -0.00000   0.00007  -0.00004   0.00003   2.14051
   A116       2.05326   0.00002  -0.00002   0.00007   0.00006   2.05332
   A117       2.08944  -0.00002  -0.00005  -0.00003  -0.00008   2.08936
   A118       2.10527  -0.00002   0.00001  -0.00007  -0.00006   2.10521
   A119       2.07773  -0.00001  -0.00002  -0.00004  -0.00005   2.07768
   A120       2.10018   0.00003   0.00000   0.00011   0.00011   2.10029
   A121       2.06165  -0.00001  -0.00006   0.00000  -0.00006   2.06159
   A122       2.08096  -0.00004  -0.00002  -0.00007  -0.00010   2.08086
   A123       2.14056   0.00005   0.00009   0.00007   0.00016   2.14072
   A124       2.06183   0.00001  -0.00007   0.00006  -0.00001   2.06182
   A125       2.13763  -0.00008   0.00008  -0.00023  -0.00015   2.13748
   A126       2.08370   0.00007  -0.00001   0.00017   0.00016   2.08386
   A127       1.91085   0.00001  -0.00000   0.00001   0.00001   1.91085
   A128       1.91029   0.00001   0.00001   0.00002   0.00002   1.91032
   A129       1.96292  -0.00003   0.00002  -0.00017  -0.00015   1.96277
   A130       1.90945  -0.00001   0.00001   0.00003   0.00004   1.90948
   A131       1.88484   0.00001  -0.00001   0.00003   0.00002   1.88486
   A132       1.88472   0.00001  -0.00002   0.00008   0.00007   1.88479
   A133       1.91036   0.00000  -0.00007   0.00010   0.00003   1.91039
   A134       1.91092   0.00001   0.00001   0.00001   0.00003   1.91094
   A135       1.96275  -0.00002   0.00013  -0.00020  -0.00007   1.96268
   A136       1.90944  -0.00000  -0.00003   0.00009   0.00005   1.90950
   A137       1.88474   0.00001  -0.00004   0.00004   0.00000   1.88474
   A138       1.88485  -0.00000  -0.00001  -0.00003  -0.00004   1.88481
   A139       1.88643  -0.00001  -0.00004  -0.00004  -0.00008   1.88635
   A140       2.19731   0.00001   0.00009  -0.00003   0.00005   2.19736
   A141       2.19915  -0.00000   0.00002   0.00011   0.00012   2.19927
   A142       2.19464  -0.00000   0.00022  -0.00005   0.00017   2.19481
   A143       2.18179   0.00000  -0.00029   0.00018  -0.00012   2.18167
   A144       1.90673   0.00000   0.00008  -0.00012  -0.00004   1.90669
   A145       2.21288  -0.00010   0.00012  -0.00043  -0.00031   2.21257
   A146       2.17604   0.00008   0.00004   0.00031   0.00035   2.17639
   A147       1.88951   0.00003   0.00002   0.00006   0.00007   1.88958
   A148       1.90483  -0.00002   0.00020  -0.00028  -0.00008   1.90475
   A149       1.90091   0.00003   0.00012   0.00005   0.00018   1.90109
   A150       1.96345  -0.00001  -0.00027   0.00013  -0.00014   1.96331
   A151       1.91424   0.00000   0.00004   0.00000   0.00004   1.91428
   A152       1.89000   0.00002  -0.00007   0.00012   0.00005   1.89005
   A153       1.89008  -0.00002  -0.00002  -0.00003  -0.00004   1.89003
   A154       1.96316  -0.00002  -0.00024   0.00006  -0.00017   1.96299
   A155       1.90492  -0.00001   0.00013  -0.00016  -0.00003   1.90488
   A156       1.90252   0.00001   0.00014  -0.00006   0.00008   1.90260
   A157       1.88938   0.00001  -0.00006   0.00010   0.00004   1.88941
   A158       1.88965   0.00000  -0.00003   0.00007   0.00005   1.88969
   A159       1.91385  -0.00000   0.00006  -0.00001   0.00005   1.91390
   A160       1.91162  -0.00002   0.00001  -0.00013  -0.00012   1.91150
   A161       1.96329  -0.00003  -0.00002  -0.00023  -0.00025   1.96304
   A162       1.91001   0.00005  -0.00007   0.00036   0.00029   1.91030
   A163       1.88472   0.00003   0.00002   0.00009   0.00011   1.88483
   A164       1.90903   0.00001  -0.00016   0.00026   0.00010   1.90914
   A165       1.88435  -0.00004   0.00021  -0.00034  -0.00013   1.88422
   A166       1.91206   0.00001  -0.00004   0.00003  -0.00001   1.91205
   A167       1.91073  -0.00003   0.00000  -0.00010  -0.00009   1.91063
   A168       1.95926   0.00001  -0.00001   0.00007   0.00007   1.95933
   A169       1.91043  -0.00000   0.00002  -0.00006  -0.00005   1.91038
   A170       1.88530  -0.00002   0.00002  -0.00003  -0.00001   1.88529
   A171       1.88537   0.00002   0.00000   0.00009   0.00009   1.88547
   A172       1.86123  -0.00010  -0.00131   0.00021  -0.00110   1.86013
   A173       1.95929   0.00013   0.00063   0.00025   0.00089   1.96017
   A174       1.86481  -0.00007  -0.00050   0.00005  -0.00045   1.86436
   A175       1.86768  -0.00003   0.00080  -0.00057   0.00023   1.86791
   A176       1.85218   0.00005   0.00095  -0.00051   0.00044   1.85262
   A177       2.04768   0.00001  -0.00064   0.00051  -0.00013   2.04755
   A178       2.07997  -0.00010  -0.00048  -0.00002  -0.00050   2.07947
   A179       2.08077   0.00006   0.00042  -0.00008   0.00035   2.08112
   A180       2.12026   0.00005   0.00008   0.00013   0.00021   2.12046
   A181       2.07905  -0.00003  -0.00008  -0.00010  -0.00017   2.07888
   A182       2.09264  -0.00001   0.00003  -0.00006  -0.00003   2.09261
   A183       2.11146   0.00004   0.00005   0.00015   0.00020   2.11166
   A184       2.07516  -0.00004   0.00004  -0.00012  -0.00008   2.07509
   A185       2.08614   0.00008  -0.00002   0.00033   0.00031   2.08646
   A186       2.12175  -0.00004  -0.00006  -0.00018  -0.00024   2.12151
   A187       2.09430  -0.00000   0.00001   0.00002   0.00003   2.09432
   A188       2.09073   0.00003  -0.00007   0.00015   0.00008   2.09081
   A189       2.09812  -0.00003   0.00006  -0.00017  -0.00011   2.09801
   A190       2.09802   0.00001  -0.00007   0.00004  -0.00003   2.09799
   A191       2.08578  -0.00001   0.00009  -0.00008   0.00001   2.08579
   A192       2.09927   0.00001  -0.00001   0.00003   0.00002   2.09929
   A193       2.09943   0.00001   0.00001   0.00004   0.00005   2.09948
   A194       2.09120  -0.00001  -0.00008   0.00000  -0.00008   2.09112
   A195       2.09254  -0.00001   0.00008  -0.00005   0.00003   2.09258
   A196       1.92947   0.00000  -0.00005   0.00004  -0.00001   1.92946
   A197       1.95037  -0.00000   0.00003  -0.00003   0.00000   1.95037
   A198       1.93288   0.00000   0.00001   0.00001   0.00002   1.93290
   A199       1.87949   0.00000  -0.00000  -0.00000  -0.00000   1.87949
   A200       1.88945  -0.00000  -0.00000   0.00000  -0.00000   1.88945
   A201       1.87991  -0.00000   0.00002  -0.00002  -0.00001   1.87990
   A202       1.95045  -0.00000   0.00003  -0.00005  -0.00002   1.95042
   A203       1.92947   0.00001  -0.00003   0.00006   0.00003   1.92949
   A204       1.93307   0.00000  -0.00001   0.00001   0.00001   1.93307
   A205       1.87931  -0.00000   0.00001  -0.00001  -0.00001   1.87930
   A206       1.88013  -0.00000   0.00002  -0.00002   0.00000   1.88013
   A207       1.88914  -0.00000  -0.00002   0.00001  -0.00001   1.88913
   A208       1.95114   0.00000   0.00004   0.00002   0.00006   1.95119
   A209       1.95117   0.00000   0.00004   0.00000   0.00005   1.95122
   A210       1.91405  -0.00000  -0.00006  -0.00001  -0.00007   1.91398
   A211       1.89181  -0.00000   0.00008  -0.00002   0.00006   1.89187
   A212       1.87623   0.00000  -0.00003   0.00004   0.00001   1.87624
   A213       1.87641  -0.00000  -0.00008  -0.00003  -0.00011   1.87630
   A214       1.92941   0.00000  -0.00002   0.00002  -0.00000   1.92941
   A215       1.95058   0.00000   0.00004  -0.00002   0.00001   1.95059
   A216       1.93300   0.00000  -0.00002   0.00001  -0.00001   1.93299
   A217       1.87930  -0.00000  -0.00001  -0.00000  -0.00002   1.87929
   A218       1.88911  -0.00000  -0.00000  -0.00000  -0.00000   1.88911
   A219       1.88015  -0.00000   0.00001   0.00000   0.00002   1.88017
   A220       1.95029   0.00000  -0.00002   0.00000  -0.00002   1.95027
   A221       1.92944  -0.00000  -0.00002   0.00000  -0.00001   1.92943
   A222       1.93291   0.00000   0.00003  -0.00000   0.00003   1.93293
   A223       1.87955  -0.00000   0.00001  -0.00001   0.00000   1.87955
   A224       1.87995  -0.00000   0.00001  -0.00000   0.00000   1.87995
   A225       1.88943   0.00000  -0.00001   0.00001   0.00000   1.88943
   A226       1.95125  -0.00001   0.00005  -0.00009  -0.00004   1.95120
   A227       1.95110  -0.00000   0.00001  -0.00004  -0.00003   1.95106
   A228       1.91410   0.00000  -0.00004   0.00008   0.00004   1.91413
   A229       1.89149  -0.00000   0.00005  -0.00008  -0.00003   1.89146
   A230       1.87646   0.00001  -0.00002   0.00010   0.00008   1.87654
   A231       1.87643   0.00000  -0.00006   0.00005  -0.00001   1.87642
   A232       1.95129   0.00001   0.00004   0.00002   0.00007   1.95135
   A233       1.92896  -0.00000  -0.00004   0.00001  -0.00002   1.92893
   A234       1.93241  -0.00000   0.00001  -0.00002  -0.00000   1.93241
   A235       1.87933  -0.00001  -0.00001  -0.00004  -0.00006   1.87927
   A236       1.88023  -0.00000  -0.00000   0.00002   0.00002   1.88025
   A237       1.88936   0.00000  -0.00001   0.00000  -0.00000   1.88936
   A238       1.95182  -0.00003   0.00000  -0.00012  -0.00011   1.95171
   A239       1.93264  -0.00000   0.00003  -0.00002   0.00000   1.93264
   A240       1.92917   0.00000  -0.00002   0.00003   0.00001   1.92917
   A241       1.87958   0.00001  -0.00001   0.00003   0.00002   1.87960
   A242       1.87965   0.00001  -0.00001   0.00007   0.00006   1.87971
   A243       1.88866   0.00000   0.00001   0.00002   0.00004   1.88870
   A244       1.95043   0.00001   0.00000  -0.00000  -0.00000   1.95043
   A245       1.95028  -0.00002   0.00004  -0.00009  -0.00005   1.95023
   A246       1.91513   0.00001  -0.00004   0.00007   0.00004   1.91517
   A247       1.89124   0.00000   0.00002  -0.00000   0.00001   1.89126
   A248       1.87652  -0.00001   0.00002  -0.00006  -0.00004   1.87648
   A249       1.87730   0.00001  -0.00005   0.00009   0.00004   1.87734
   A250       1.95034  -0.00003   0.00006  -0.00020  -0.00014   1.95020
   A251       1.92988   0.00001  -0.00004   0.00011   0.00007   1.92995
   A252       1.93248   0.00001   0.00002   0.00001   0.00003   1.93251
   A253       1.87958   0.00001  -0.00003   0.00016   0.00012   1.87971
   A254       1.87977   0.00000  -0.00001  -0.00005  -0.00006   1.87971
   A255       1.88953  -0.00001  -0.00000  -0.00002  -0.00002   1.88950
   A256       1.95081  -0.00001   0.00005  -0.00008  -0.00003   1.95079
   A257       1.95095  -0.00001  -0.00004  -0.00002  -0.00006   1.95089
   A258       1.91474   0.00000   0.00001   0.00003   0.00004   1.91478
   A259       1.89126   0.00001  -0.00000   0.00002   0.00002   1.89128
   A260       1.87654   0.00000  -0.00003   0.00007   0.00004   1.87658
   A261       1.87653   0.00000   0.00001  -0.00001   0.00000   1.87654
   A262       1.93107  -0.00002   0.00011  -0.00014  -0.00004   1.93103
   A263       1.93072  -0.00000  -0.00000  -0.00002  -0.00003   1.93069
   A264       1.94973   0.00003  -0.00012   0.00022   0.00010   1.94984
   A265       1.88893   0.00001   0.00006  -0.00002   0.00004   1.88896
   A266       1.88063  -0.00000  -0.00007   0.00008   0.00002   1.88065
   A267       1.88055  -0.00002   0.00003  -0.00012  -0.00009   1.88046
   A268       1.95330   0.00000  -0.00005   0.00003  -0.00002   1.95328
   A269       1.95278  -0.00000  -0.00003   0.00004   0.00000   1.95278
   A270       1.90992  -0.00001   0.00014  -0.00010   0.00004   1.90996
   A271       1.89546   0.00000  -0.00011   0.00005  -0.00006   1.89541
   A272       1.87464   0.00000   0.00005  -0.00004   0.00001   1.87465
   A273       1.87447   0.00001   0.00001   0.00001   0.00003   1.87449
   A274       1.91911  -0.00000   0.00001  -0.00004  -0.00002   1.91909
   A275       1.95709   0.00000  -0.00004   0.00003  -0.00001   1.95708
   A276       1.93664   0.00000   0.00002  -0.00001   0.00002   1.93666
   A277       1.87670   0.00000   0.00001   0.00003   0.00004   1.87674
   A278       1.88803   0.00000   0.00002   0.00001   0.00002   1.88805
   A279       1.88387  -0.00000  -0.00002  -0.00002  -0.00004   1.88383
   A280       1.93633   0.00000   0.00002   0.00001   0.00003   1.93636
   A281       1.95689   0.00002  -0.00009   0.00013   0.00004   1.95693
   A282       1.91900  -0.00001   0.00007  -0.00010  -0.00003   1.91897
   A283       1.88261  -0.00001  -0.00000  -0.00002  -0.00002   1.88259
   A284       1.88924   0.00000  -0.00000   0.00000  -0.00000   1.88924
   A285       1.87744  -0.00001   0.00001  -0.00003  -0.00002   1.87742
   A286       1.95778  -0.00000  -0.00006   0.00002  -0.00004   1.95774
   A287       1.91804  -0.00000   0.00003  -0.00005  -0.00001   1.91803
   A288       1.93690   0.00001  -0.00000   0.00004   0.00004   1.93693
   A289       1.87660   0.00000   0.00001   0.00003   0.00004   1.87664
   A290       1.88426  -0.00001  -0.00001  -0.00005  -0.00006   1.88420
   A291       1.88785  -0.00000   0.00003   0.00001   0.00003   1.88788
   A292       1.93591   0.00000   0.00001   0.00002   0.00003   1.93594
   A293       1.91774  -0.00001   0.00012  -0.00014  -0.00002   1.91772
   A294       1.95707   0.00003  -0.00013   0.00021   0.00008   1.95715
   A295       1.89007   0.00000  -0.00001  -0.00001  -0.00002   1.89005
   A296       1.88316  -0.00001  -0.00000  -0.00002  -0.00002   1.88314
   A297       1.87764  -0.00001   0.00002  -0.00006  -0.00005   1.87759
   A298       1.95274  -0.00001  -0.00003  -0.00002  -0.00005   1.95269
   A299       1.95308   0.00001  -0.00007   0.00006  -0.00001   1.95307
   A300       1.90939  -0.00001   0.00018  -0.00013   0.00004   1.90944
   A301       1.89556   0.00000  -0.00012   0.00006  -0.00006   1.89551
   A302       1.87484   0.00002   0.00001   0.00008   0.00009   1.87493
   A303       1.87499  -0.00000   0.00004  -0.00005  -0.00001   1.87497
    D1        0.00019  -0.00000   0.00070  -0.00056   0.00014   0.00033
    D2       -3.13342  -0.00001   0.00080  -0.00089  -0.00009  -3.13351
    D3        3.13936   0.00000  -0.00038   0.00037  -0.00001   3.13936
    D4        0.00576  -0.00000  -0.00028   0.00004  -0.00024   0.00552
    D5        3.13973  -0.00000  -0.00116   0.00060  -0.00055   3.13918
    D6       -0.00083   0.00000  -0.00075   0.00070  -0.00005  -0.00088
    D7        0.00012  -0.00001  -0.00027  -0.00016  -0.00043  -0.00031
    D8       -3.14043   0.00000   0.00013  -0.00006   0.00007  -3.14036
    D9       -3.13929   0.00001   0.00138  -0.00050   0.00088  -3.13841
   D10        0.02708  -0.00004  -0.00092  -0.00242  -0.00334   0.02374
   D11        0.00010   0.00001   0.00040   0.00035   0.00075   0.00085
   D12       -3.11671  -0.00004  -0.00190  -0.00157  -0.00348  -3.12018
   D13       -0.00054  -0.00000   0.00059  -0.00048   0.00010  -0.00043
   D14        3.13344  -0.00001   0.00097  -0.00088   0.00009   3.13353
   D15       -3.13813  -0.00001  -0.00075  -0.00012  -0.00087  -3.13900
   D16       -0.00416  -0.00002  -0.00036  -0.00051  -0.00087  -0.00503
   D17       -3.13795  -0.00000  -0.00089   0.00059  -0.00030  -3.13824
   D18        0.00022   0.00001  -0.00065   0.00089   0.00023   0.00045
   D19        0.00037   0.00001   0.00020   0.00029   0.00050   0.00087
   D20        3.13853   0.00002   0.00044   0.00059   0.00103   3.13956
   D21        3.13766  -0.00000   0.00084  -0.00073   0.00011   3.13777
   D22       -0.02874   0.00004   0.00315   0.00119   0.00434  -0.02441
   D23       -0.00030  -0.00001  -0.00037  -0.00040  -0.00077  -0.00107
   D24        3.11648   0.00004   0.00194   0.00152   0.00346   3.11994
   D25        0.00047  -0.00000  -0.00018   0.00005  -0.00013   0.00035
   D26       -3.13767  -0.00000  -0.00005  -0.00005  -0.00010  -3.13778
   D27        3.13406   0.00000  -0.00028   0.00039   0.00011   3.13417
   D28       -0.00408   0.00000  -0.00016   0.00028   0.00013  -0.00396
   D29       -0.00030   0.00000   0.00004  -0.00008  -0.00004  -0.00034
   D30       -3.13775  -0.00001  -0.00024  -0.00043  -0.00068  -3.13843
   D31        3.14005  -0.00001  -0.00044  -0.00020  -0.00065   3.13940
   D32        0.00259  -0.00002  -0.00073  -0.00056  -0.00129   0.00131
   D33        0.00081  -0.00000   0.00027  -0.00033  -0.00006   0.00074
   D34        3.14015  -0.00000  -0.00009   0.00004  -0.00005   3.14011
   D35       -3.13941   0.00001   0.00080  -0.00019   0.00061  -3.13880
   D36       -0.00006   0.00001   0.00045   0.00018   0.00063   0.00056
   D37        0.00021  -0.00001  -0.00017  -0.00016  -0.00033  -0.00012
   D38        3.13815  -0.00001   0.00004  -0.00020  -0.00016   3.13799
   D39       -3.13374   0.00000  -0.00055   0.00024  -0.00032  -3.13406
   D40        0.00420   0.00000  -0.00035   0.00020  -0.00015   0.00404
   D41        0.00045  -0.00001   0.00028  -0.00064  -0.00036   0.00009
   D42       -3.13924  -0.00000  -0.00000  -0.00028  -0.00029  -3.13953
   D43        3.13748   0.00001   0.00060  -0.00025   0.00035   3.13782
   D44       -0.00222   0.00001   0.00031   0.00011   0.00042  -0.00180
   D45       -0.00049   0.00000  -0.00029   0.00030   0.00002  -0.00047
   D46       -3.13899  -0.00000   0.00004  -0.00022  -0.00018  -3.13917
   D47        3.13758   0.00000  -0.00042   0.00041  -0.00000   3.13758
   D48       -0.00091  -0.00000  -0.00009  -0.00011  -0.00020  -0.00111
   D49       -0.00017   0.00000   0.00024  -0.00016   0.00008  -0.00009
   D50        3.13843   0.00001  -0.00008   0.00034   0.00027   3.13870
   D51       -3.13948  -0.00000   0.00059  -0.00053   0.00006  -3.13942
   D52       -0.00089   0.00000   0.00028  -0.00003   0.00025  -0.00064
   D53        0.00043   0.00001  -0.00019   0.00039   0.00021   0.00064
   D54        3.13881   0.00000  -0.00020   0.00035   0.00015   3.13897
   D55       -3.13744   0.00001  -0.00039   0.00043   0.00004  -3.13740
   D56        0.00095   0.00000  -0.00041   0.00039  -0.00002   0.00093
   D57       -0.00076   0.00000   0.00012   0.00002   0.00014  -0.00061
   D58       -3.13924   0.00000   0.00014   0.00006   0.00020  -3.13905
   D59        3.13891  -0.00000   0.00042  -0.00034   0.00007   3.13898
   D60        0.00043  -0.00000   0.00043  -0.00031   0.00013   0.00055
   D61       -2.09855   0.00001  -0.00026   0.00076   0.00050  -2.09805
   D62        2.09177   0.00000  -0.00027   0.00070   0.00043   2.09220
   D63       -0.00313   0.00000  -0.00027   0.00070   0.00043  -0.00270
   D64        1.04618   0.00000   0.00007   0.00023   0.00030   1.04648
   D65       -1.04669   0.00000   0.00006   0.00018   0.00023  -1.04645
   D66       -3.14159  -0.00000   0.00006   0.00017   0.00023  -3.14135
   D67       -2.09095   0.00000  -0.00111   0.00195   0.00084  -2.09011
   D68        2.09929  -0.00000  -0.00104   0.00178   0.00074   2.10002
   D69        0.00391   0.00001  -0.00112   0.00194   0.00082   0.00473
   D70        1.04739   0.00000  -0.00113   0.00191   0.00078   1.04817
   D71       -1.04555  -0.00000  -0.00106   0.00174   0.00068  -1.04487
   D72       -3.14093   0.00000  -0.00114   0.00190   0.00076  -3.14017
   D73        0.04481  -0.00001  -0.00047  -0.00010  -0.00057   0.04424
   D74       -3.08332  -0.00001   0.00158  -0.00151   0.00008  -3.08324
   D75       -3.10653   0.00001  -0.00031   0.00051   0.00020  -3.10632
   D76        0.04853   0.00001   0.00175  -0.00089   0.00085   0.04939
   D77       -0.04069   0.00001  -0.00058   0.00083   0.00025  -0.04045
   D78        3.07073   0.00000   0.00017  -0.00041  -0.00024   3.07049
   D79        3.11071  -0.00001  -0.00075   0.00022  -0.00053   3.11018
   D80       -0.06105  -0.00002   0.00001  -0.00103  -0.00102  -0.06207
   D81        1.57336   0.00008   0.00357   0.00686   0.01043   1.58379
   D82       -1.53912   0.00003   0.00086   0.00461   0.00547  -1.53364
   D83       -1.57832   0.00010   0.00374   0.00750   0.01124  -1.56709
   D84        1.59239   0.00005   0.00103   0.00524   0.00628   1.59867
   D85       -0.03731  -0.00002   0.00182  -0.00147   0.00035  -0.03696
   D86       -3.12133  -0.00000   0.00199  -0.00057   0.00142  -3.11991
   D87        3.09079  -0.00002  -0.00024  -0.00006  -0.00030   3.09049
   D88        0.00677   0.00001  -0.00007   0.00084   0.00077   0.00754
   D89        0.02166   0.00005  -0.00192   0.00211   0.00018   0.02184
   D90        2.57873  -0.00000  -0.00324   0.00275  -0.00048   2.57825
   D91        3.10307   0.00002  -0.00209   0.00114  -0.00095   3.10212
   D92       -0.62304  -0.00003  -0.00340   0.00179  -0.00161  -0.62466
   D93       -1.51938   0.00003  -0.00197   0.00425   0.00228  -1.51710
   D94        1.63121   0.00001  -0.00303   0.00322   0.00019   1.63140
   D95        1.67789   0.00005  -0.00181   0.00513   0.00332   1.68121
   D96       -1.45471   0.00003  -0.00288   0.00410   0.00123  -1.45348
   D97       -0.01704  -0.00004   0.00083  -0.00134  -0.00051  -0.01755
   D98       -3.08148   0.00002  -0.00258   0.00275   0.00016  -3.08132
   D99       -2.55946   0.00002   0.00239  -0.00236   0.00004  -2.55942
   D100       0.65928   0.00008  -0.00102   0.00173   0.00071   0.66000
   D101       2.72258   0.00002   0.00143  -0.00153  -0.00010   2.72248
   D102      -1.52053  -0.00001   0.00195  -0.00196  -0.00002  -1.52055
   D103       0.74755   0.00004   0.00118  -0.00107   0.00011   0.74766
   D104      -1.04515  -0.00002   0.00003  -0.00064  -0.00060  -1.04575
   D105       0.99492  -0.00005   0.00055  -0.00107  -0.00052   0.99441
   D106      -3.02018   0.00000  -0.00022  -0.00018  -0.00039  -3.02057
   D107       0.02815   0.00001   0.00035  -0.00005   0.00031   0.02846
   D108      -3.08348   0.00002  -0.00039   0.00118   0.00079  -3.08269
   D109       3.09371  -0.00004   0.00373  -0.00404  -0.00031   3.09340
   D110      -0.01793  -0.00003   0.00299  -0.00282   0.00017  -0.01775
   D111      -1.82778  -0.00002   0.00325  -0.00198   0.00127  -1.82651
   D112       1.43090  -0.00005   0.00124  -0.00133  -0.00009   1.43081
   D113       1.38700   0.00003  -0.00001   0.00189   0.00189   1.38888
   D114      -1.63751   0.00001  -0.00202   0.00254   0.00053  -1.63698
   D115      -0.00671   0.00000  -0.00032   0.00036   0.00004  -0.00667
   D116       3.10303   0.00000  -0.00006   0.00008   0.00001   3.10305
   D117      -3.13578  -0.00000   0.00035  -0.00056  -0.00021  -3.13599
   D118      -0.02604  -0.00001   0.00061  -0.00085  -0.00024  -0.02627
   D119      -3.12280   0.00000   0.00016  -0.00021  -0.00005  -3.12285
   D120       0.00826  -0.00000   0.00036  -0.00032   0.00003   0.00830
   D121       0.00839   0.00001  -0.00039   0.00055   0.00016   0.00856
   D122       3.13946   0.00001  -0.00020   0.00044   0.00024   3.13970
   D123      -0.01135  -0.00002  -0.00094  -0.00077  -0.00172  -0.01307
   D124       3.12244  -0.00000  -0.00002   0.00012   0.00010   3.12253
   D125       3.14149  -0.00003  -0.00034  -0.00160  -0.00194   3.13955
   D126      -0.00790  -0.00001   0.00058  -0.00071  -0.00013  -0.00803
   D127      -0.00192   0.00000   0.00015   0.00000   0.00015  -0.00177
   D128      -3.13666  -0.00000   0.00039  -0.00051  -0.00012  -3.13679
   D129       3.13292  -0.00000  -0.00071   0.00039  -0.00032   3.13259
   D130      -0.00183  -0.00001  -0.00048  -0.00012  -0.00060  -0.00243
   D131       3.13715  -0.00000  -0.00043   0.00010  -0.00033   3.13681
   D132       0.00216  -0.00000  -0.00001   0.00002   0.00001   0.00217
   D133       0.00117  -0.00000   0.00029  -0.00022   0.00006   0.00123
   D134      -3.13381   0.00000   0.00071  -0.00030   0.00040  -3.13341
   D135       0.00243   0.00003   0.00115   0.00111   0.00226   0.00469
   D136      -3.13143   0.00001   0.00023   0.00023   0.00047  -3.13097
   D137       3.13795   0.00002   0.00038   0.00146   0.00184   3.13978
   D138       0.00409   0.00001  -0.00054   0.00058   0.00004   0.00413
   D139       0.00174   0.00000   0.00004   0.00013   0.00017   0.00191
   D140       3.13085  -0.00000   0.00034  -0.00032   0.00002   3.13087
   D141      -3.10770   0.00000  -0.00023   0.00041   0.00018  -3.10752
   D142       0.02141  -0.00000   0.00007  -0.00003   0.00004   0.02145
   D143      -0.00573  -0.00000   0.00006  -0.00020  -0.00014  -0.00587
   D144       3.12775  -0.00001  -0.00046  -0.00010  -0.00056   3.12720
   D145      -3.13445  -0.00000  -0.00018  -0.00005  -0.00024  -3.13468
   D146      -0.00096  -0.00000  -0.00070   0.00004  -0.00065  -0.00161
   D147      -0.00460  -0.00001  -0.00010  -0.00021  -0.00031  -0.00491
   D148      -3.13689  -0.00001  -0.00022  -0.00020  -0.00041  -3.13730
   D149       3.12278  -0.00001   0.00017  -0.00037  -0.00020   3.12258
   D150      -0.00951  -0.00001   0.00005  -0.00036  -0.00030  -0.00981
   D151      -0.00072  -0.00000  -0.00014  -0.00007  -0.00021  -0.00093
   D152      -3.13873  -0.00000   0.00001  -0.00025  -0.00024  -3.13896
   D153       3.13395   0.00000  -0.00038   0.00044   0.00006   3.13402
   D154      -0.00406   0.00000  -0.00023   0.00027   0.00004  -0.00402
   D155       0.00025   0.00000  -0.00015   0.00003  -0.00012   0.00013
   D156       3.13522   0.00000  -0.00031   0.00026  -0.00006   3.13516
   D157      -3.13240   0.00000   0.00042  -0.00008   0.00035  -3.13205
   D158       0.00258   0.00001   0.00026   0.00015   0.00041   0.00298
   D159       0.00163  -0.00001   0.00021  -0.00064  -0.00043   0.00120
   D160       3.13240   0.00001   0.00005   0.00031   0.00036   3.13276
   D161      -3.12723  -0.00000  -0.00010  -0.00018  -0.00028  -3.12751
   D162       0.00355   0.00001  -0.00026   0.00077   0.00051   0.00406
   D163      -0.00015   0.00001  -0.00017   0.00067   0.00050   0.00035
   D164      -3.13134  -0.00000  -0.00002  -0.00024  -0.00027  -3.13160
   D165       3.13214   0.00001  -0.00005   0.00066   0.00061   3.13274
   D166       0.00095  -0.00000   0.00010  -0.00026  -0.00016   0.00079
   D167       0.00302   0.00000  -0.00001   0.00012   0.00011   0.00314
   D168      -3.13428  -0.00001   0.00005  -0.00040  -0.00034  -3.13462
   D169       3.14097   0.00000  -0.00016   0.00030   0.00014   3.14110
   D170       0.00366  -0.00001  -0.00010  -0.00022  -0.00032   0.00334
   D171      -0.00274  -0.00000   0.00016  -0.00010   0.00006  -0.00268
   D172       3.13473   0.00001   0.00010   0.00040   0.00050   3.13522
   D173      -3.13771  -0.00000   0.00032  -0.00032  -0.00000  -3.13771
   D174      -0.00024   0.00000   0.00026   0.00018   0.00044   0.00020
   D175       2.10952   0.00001   0.00001   0.00409   0.00409   2.11361
   D176      -2.08425   0.00001   0.00025   0.00395   0.00420  -2.08004
   D177       0.01135   0.00000   0.00014   0.00404   0.00418   0.01553
   D178      -1.04290   0.00002  -0.00015   0.00504   0.00489  -1.03801
   D179       1.04653   0.00003   0.00009   0.00491   0.00500   1.05152
   D180      -3.14106   0.00002  -0.00002   0.00499   0.00497  -3.13609
   D181      -0.00468  -0.00000  -0.00037  -0.00146  -0.00184  -0.00651
   D182      -2.10194  -0.00000  -0.00023  -0.00152  -0.00175  -2.10368
   D183       2.09129  -0.00000  -0.00046  -0.00137  -0.00183   2.08945
   D184       3.14120  -0.00001  -0.00031  -0.00198  -0.00229   3.13891
   D185       1.04395  -0.00001  -0.00017  -0.00204  -0.00220   1.04174
   D186      -1.04601  -0.00001  -0.00040  -0.00189  -0.00229  -1.04831
   D187      -0.00136   0.00001  -0.00024   0.00030   0.00006  -0.00130
   D188      -3.11278   0.00003  -0.00101   0.00158   0.00057  -3.11221
   D189       3.10561  -0.00001   0.00228  -0.00120   0.00109   3.10669
   D190      -0.00581   0.00001   0.00151   0.00008   0.00159  -0.00422
   D191       3.12470  -0.00001   0.00099  -0.00028   0.00071   3.12542
   D192       0.00119  -0.00001   0.00053  -0.00064  -0.00012   0.00108
   D193       0.01146   0.00001  -0.00108   0.00095  -0.00013   0.01133
   D194      -3.11205   0.00000  -0.00155   0.00059  -0.00096  -3.11300
   D195       0.10838  -0.00000  -0.00324   0.00191  -0.00133   0.10705
   D196      -3.13455   0.00003  -0.00149   0.00137  -0.00013  -3.13468
   D197      -3.06457  -0.00002  -0.00096   0.00055  -0.00040  -3.06498
   D198      -0.02432   0.00001   0.00079   0.00001   0.00079  -0.02353
   D199       0.02086  -0.00002  -0.00020  -0.00054  -0.00075   0.02012
   D200      -3.12865   0.00000  -0.00072   0.00035  -0.00037  -3.12902
   D201      -3.12362  -0.00002  -0.00090  -0.00057  -0.00147  -3.12509
   D202       0.01005  -0.00000  -0.00142   0.00032  -0.00110   0.00896
   D203       3.11881   0.00003  -0.00108   0.00155   0.00047   3.11928
   D204      -0.02416   0.00001   0.00118  -0.00032   0.00086  -0.02330
   D205      -0.02041   0.00003  -0.00050   0.00157   0.00106  -0.01935
   D206       3.11980   0.00001   0.00175  -0.00030   0.00145   3.12126
   D207      -0.06821  -0.00001   0.00218  -0.00156   0.00062  -0.06759
   D208      -3.11112  -0.00002   0.00048  -0.00098  -0.00050  -3.11163
   D209       3.07076  -0.00001   0.00155  -0.00159  -0.00004   3.07072
   D210       0.02785  -0.00003  -0.00016  -0.00100  -0.00116   0.02669
   D211       0.00037   0.00001  -0.00002   0.00028   0.00026   0.00064
   D212      -3.13493   0.00001  -0.00021   0.00041   0.00019  -3.13474
   D213       3.11161  -0.00001   0.00077  -0.00101  -0.00024   3.11137
   D214      -0.02369  -0.00001   0.00057  -0.00088  -0.00031  -0.02400
   D215       0.00540  -0.00002   0.00096  -0.00152  -0.00056   0.00484
   D216      -3.13452   0.00000  -0.00178   0.00074  -0.00104  -3.13556
   D217       3.12534  -0.00001   0.00152  -0.00109   0.00043   3.12577
   D218      -0.01459   0.00001  -0.00122   0.00117  -0.00004  -0.01463
   D219       0.00001   0.00001  -0.00056   0.00040  -0.00016  -0.00015
   D220       3.13810   0.00000  -0.00044   0.00032  -0.00012   3.13798
   D221      -3.11766  -0.00000  -0.00118  -0.00008  -0.00125  -3.11892
   D222       0.02043  -0.00001  -0.00106  -0.00016  -0.00122   0.01921
   D223      -0.00247   0.00002  -0.00071   0.00107   0.00037  -0.00210
   D224       3.13903   0.00001  -0.00000   0.00027   0.00026   3.13930
   D225      -3.13611  -0.00000  -0.00019   0.00018  -0.00001  -3.13612
   D226       0.00539  -0.00001   0.00051  -0.00063  -0.00011   0.00528
   D227       0.00854   0.00001  -0.00128   0.00070  -0.00058   0.00797
   D228      -3.13460   0.00001  -0.00125   0.00101  -0.00024  -3.13484
   D229      -3.13488  -0.00002   0.00174  -0.00180  -0.00006  -3.13494
   D230       0.00516  -0.00002   0.00176  -0.00148   0.00028   0.00544
   D231       0.00078  -0.00002  -0.00001  -0.00052  -0.00053   0.00025
   D232      -3.13595  -0.00000   0.00035  -0.00039  -0.00004  -3.13599
   D233       3.13599  -0.00002   0.00018  -0.00064  -0.00046   3.13553
   D234      -0.00074  -0.00000   0.00055  -0.00051   0.00003  -0.00070
   D235      -0.00096   0.00001   0.00030   0.00016   0.00046  -0.00049
   D236       3.13559  -0.00001  -0.00007   0.00003  -0.00005   3.13555
   D237      -3.13898   0.00001   0.00018   0.00024   0.00042  -3.13855
   D238      -0.00243  -0.00000  -0.00019   0.00011  -0.00009  -0.00251
   D239      -0.01241  -0.00001   0.00061  -0.00071  -0.00011  -0.01251
   D240       3.13570   0.00000   0.00104  -0.00027   0.00077   3.13647
   D241       3.12928   0.00000  -0.00011   0.00011   0.00000   3.12928
   D242      -0.00580   0.00001   0.00032   0.00055   0.00088  -0.00492
   D243       0.00911  -0.00001   0.00041  -0.00020   0.00021   0.00932
   D244      -3.13879  -0.00002  -0.00001  -0.00063  -0.00064  -3.13943
   D245      -3.13091  -0.00001   0.00038  -0.00051  -0.00013  -3.13104
   D246       0.00437  -0.00002  -0.00003  -0.00094  -0.00098   0.00339
   D247      -1.04422  -0.00002  -0.00031  -0.00277  -0.00308  -1.04730
   D248       1.05085  -0.00003  -0.00031  -0.00289  -0.00320   1.04765
   D249      -3.13868  -0.00001  -0.00031  -0.00280  -0.00310   3.14140
   D250       2.10247  -0.00000   0.00007  -0.00263  -0.00256   2.09991
   D251      -2.08564  -0.00001   0.00007  -0.00275  -0.00268  -2.08833
   D252       0.00801   0.00000   0.00008  -0.00266  -0.00259   0.00542
   D253       2.09104  -0.00001  -0.00339   0.00200  -0.00139   2.08965
   D254      -0.00500  -0.00002  -0.00342   0.00213  -0.00129  -0.00630
   D255      -2.09948   0.00001  -0.00362   0.00246  -0.00116  -2.10064
   D256      -1.04396  -0.00000  -0.00296   0.00245  -0.00051  -1.04446
   D257      -3.14000  -0.00001  -0.00298   0.00257  -0.00041  -3.14041
   D258       1.04871   0.00002  -0.00319   0.00291  -0.00027   1.04843
   D259       3.13952  -0.00001   0.00007  -0.00014  -0.00007   3.13945
   D260      -1.05070  -0.00001   0.00007  -0.00015  -0.00009  -1.05079
   D261       1.04577  -0.00001   0.00010  -0.00016  -0.00006   1.04570
   D262      -1.05028  -0.00000   0.00008  -0.00010  -0.00002  -1.05029
   D263       1.04268  -0.00000   0.00008  -0.00011  -0.00003   1.04265
   D264       3.13915  -0.00000   0.00011  -0.00011  -0.00001   3.13914
   D265       0.99696   0.00002   0.00006   0.00004   0.00010   0.99706
   D266       3.08992   0.00001   0.00005   0.00003   0.00008   3.09000
   D267      -1.09680   0.00002   0.00008   0.00002   0.00011  -1.09669
   D268       1.05262   0.00001   0.00015  -0.00032  -0.00017   1.05245
   D269      -3.13746   0.00001   0.00013  -0.00033  -0.00019  -3.13765
   D270      -1.04334   0.00001   0.00013  -0.00031  -0.00018  -1.04352
   D271      -1.04110  -0.00000   0.00014  -0.00036  -0.00022  -1.04132
   D272       1.05201  -0.00000   0.00013  -0.00037  -0.00024   1.05177
   D273      -3.13706  -0.00000   0.00013  -0.00035  -0.00023  -3.13729
   D274      -3.08841  -0.00001   0.00016  -0.00047  -0.00031  -3.08871
   D275      -0.99530  -0.00001   0.00015  -0.00047  -0.00033  -0.99563
   D276       1.09881  -0.00001   0.00015  -0.00046  -0.00031   1.09850
   D277      -1.06225   0.00001   0.00002   0.00136   0.00138  -1.06087
   D278       1.06185  -0.00000   0.00014   0.00115   0.00129   1.06314
   D279       3.14133   0.00000   0.00004   0.00124   0.00128  -3.14057
   D280       1.04816   0.00001   0.00002   0.00129   0.00131   1.04947
   D281      -3.11093  -0.00000   0.00014   0.00108   0.00122  -3.10971
   D282      -1.03145   0.00000   0.00004   0.00117   0.00121  -1.03024
   D283       3.11129   0.00001   0.00002   0.00139   0.00140   3.11270
   D284      -1.04779   0.00000   0.00013   0.00118   0.00131  -1.04648
   D285       1.03169   0.00000   0.00003   0.00127   0.00131   1.03300
   D286       3.13805  -0.00001   0.00037  -0.00085  -0.00048   3.13757
   D287      -1.05204  -0.00001   0.00035  -0.00084  -0.00048  -1.05252
   D288       1.04390  -0.00001   0.00041  -0.00088  -0.00048   1.04343
   D289      -1.05129   0.00000   0.00033  -0.00072  -0.00039  -1.05168
   D290       1.04181   0.00000   0.00031  -0.00071  -0.00040   1.04141
   D291       3.13775  -0.00000   0.00036  -0.00076  -0.00039   3.13736
   D292       0.99605   0.00000   0.00028  -0.00069  -0.00041   0.99564
   D293       3.08915   0.00001   0.00026  -0.00068  -0.00042   3.08873
   D294      -1.09809   0.00000   0.00031  -0.00072  -0.00041  -1.09850
   D295       1.05071   0.00001   0.00041  -0.00047  -0.00006   1.05064
   D296      -3.13957   0.00001   0.00042  -0.00049  -0.00007  -3.13963
   D297      -1.04570   0.00001   0.00037  -0.00042  -0.00006  -1.04575
   D298      -1.04281  -0.00000   0.00050  -0.00065  -0.00015  -1.04296
   D299       1.05011  -0.00000   0.00051  -0.00066  -0.00015   1.04996
   D300      -3.13921  -0.00000   0.00046  -0.00060  -0.00014  -3.13935
   D301      -3.09008  -0.00001   0.00057  -0.00073  -0.00016  -3.09024
   D302      -0.99716  -0.00001   0.00058  -0.00074  -0.00016  -0.99732
   D303       1.09671  -0.00001   0.00053  -0.00068  -0.00015   1.09656
   D304      -1.06403   0.00001  -0.00118   0.00283   0.00165  -1.06238
   D305       1.06046   0.00001  -0.00102   0.00282   0.00180   1.06226
   D306       3.13993   0.00000  -0.00113   0.00278   0.00165   3.14158
   D307       1.04560   0.00001  -0.00121   0.00286   0.00165   1.04725
   D308      -3.11310   0.00001  -0.00105   0.00284   0.00180  -3.11130
   D309      -1.03362   0.00000  -0.00116   0.00280   0.00165  -1.03198
   D310       3.10876   0.00001  -0.00128   0.00297   0.00169   3.11044
   D311      -1.04994   0.00001  -0.00111   0.00295   0.00184  -1.04810
   D312       1.02953   0.00001  -0.00122   0.00291   0.00169   1.03122
   D313       1.05900   0.00001   0.00010  -0.00087  -0.00077   1.05822
   D314      -3.13759   0.00001   0.00009  -0.00085  -0.00076  -3.13835
   D315      -1.05030   0.00001   0.00015  -0.00084  -0.00070  -1.05100
   D316      -1.02217  -0.00001  -0.00020  -0.00077  -0.00097  -1.02314
   D317       1.06442  -0.00001  -0.00020  -0.00074  -0.00095   1.06347
   D318      -3.13147  -0.00001  -0.00015  -0.00074  -0.00089  -3.13236
   D319      -3.08144  -0.00001  -0.00016  -0.00081  -0.00097  -3.08241
   D320      -0.99485  -0.00000  -0.00016  -0.00078  -0.00095  -0.99580
   D321       1.09245  -0.00000  -0.00011  -0.00078  -0.00089   1.09156
   D322       1.04119   0.00000  -0.00021  -0.00032  -0.00053   1.04066
   D323       3.13043  -0.00000  -0.00014  -0.00041  -0.00055   3.12988
   D324      -1.06552  -0.00001  -0.00012  -0.00045  -0.00057  -1.06609
   D325       3.12477  -0.00001   0.00014  -0.00063  -0.00049   3.12428
   D326      -1.06918  -0.00001   0.00020  -0.00072  -0.00052  -1.06969
   D327       1.01806  -0.00001   0.00022  -0.00076  -0.00054   1.01752
   D328      -1.09919   0.00001   0.00006  -0.00050  -0.00044  -1.09963
   D329       0.99005   0.00001   0.00013  -0.00059  -0.00046   0.98959
   D330       3.07728   0.00000   0.00015  -0.00063  -0.00048   3.07680
   D331      -1.07004  -0.00000   0.00037   0.00145   0.00182  -1.06822
   D332       1.06185  -0.00000   0.00014   0.00156   0.00170   1.06356
   D333       3.13770  -0.00001   0.00026   0.00145   0.00172   3.13941
   D334       3.10643   0.00002   0.00034   0.00164   0.00198   3.10841
   D335      -1.04485   0.00002   0.00012   0.00175   0.00186  -1.04299
   D336       1.03099   0.00001   0.00024   0.00164   0.00187   1.03286
   D337       1.03181   0.00001   0.00034   0.00158   0.00193   1.03373
   D338      -3.11948   0.00001   0.00012   0.00169   0.00181  -3.11767
   D339      -1.04364   0.00001   0.00024   0.00158   0.00182  -1.04182
   D340      -1.06488   0.00000   0.00010  -0.00101  -0.00091  -1.06580
   D341       1.06707   0.00000  -0.00010  -0.00090  -0.00100   1.06607
   D342      -3.14077   0.00000  -0.00002  -0.00092  -0.00094   3.14147
   D343       1.04133  -0.00001   0.00007  -0.00111  -0.00104   1.04029
   D344      -3.10990  -0.00001  -0.00013  -0.00099  -0.00113  -3.11103
   D345      -1.03456  -0.00001  -0.00005  -0.00102  -0.00107  -1.03562
   D346       3.11491  -0.00001   0.00010  -0.00103  -0.00093   3.11397
   D347      -1.03633  -0.00000  -0.00011  -0.00091  -0.00102  -1.03735
   D348       1.03902  -0.00000  -0.00003  -0.00094  -0.00096   1.03806
   D349       3.13816  -0.00001  -0.00016   0.00075   0.00059   3.13875
   D350      -1.05804  -0.00001  -0.00017   0.00079   0.00061  -1.05742
   D351       1.05011  -0.00001  -0.00021   0.00077   0.00056   1.05067
   D352       0.99610   0.00001   0.00009   0.00071   0.00080   0.99690
   D353       3.08309   0.00001   0.00008   0.00074   0.00082   3.08391
   D354      -1.09195   0.00001   0.00004   0.00073   0.00077  -1.09118
   D355      -1.06208   0.00000   0.00012   0.00058   0.00069  -1.06138
   D356       1.02491   0.00000   0.00011   0.00061   0.00072   1.02563
   D357       3.13306   0.00000   0.00008   0.00059   0.00067   3.13373
   D358      -1.04317   0.00000   0.00051  -0.00056  -0.00006  -1.04322
   D359       1.06301   0.00001   0.00045  -0.00049  -0.00003   1.06297
   D360      -3.13245   0.00000   0.00045  -0.00051  -0.00005  -3.13251
   D361       1.09759  -0.00001   0.00029  -0.00048  -0.00019   1.09740
   D362      -3.07942  -0.00001   0.00023  -0.00040  -0.00017  -3.07959
   D363      -0.99170  -0.00001   0.00023  -0.00042  -0.00019  -0.99189
   D364      -3.12759   0.00000   0.00023  -0.00032  -0.00009  -3.12768
   D365      -1.02142   0.00001   0.00018  -0.00025  -0.00007  -1.02149
   D366       1.06631   0.00001   0.00018  -0.00027  -0.00009   1.06622
   D367       1.05148   0.00003  -0.00073   0.00141   0.00068   1.05215
   D368      -3.13824   0.00003  -0.00076   0.00155   0.00079  -3.13745
   D369      -1.04399   0.00003  -0.00078   0.00161   0.00083  -1.04317
   D370      -3.08829  -0.00000  -0.00073   0.00111   0.00037  -3.08792
   D371      -0.99482   0.00000  -0.00076   0.00125   0.00048  -0.99434
   D372       1.09942   0.00001  -0.00078   0.00130   0.00052   1.09994
   D373      -1.04179  -0.00003  -0.00056   0.00089   0.00033  -1.04145
   D374       1.05169  -0.00002  -0.00059   0.00103   0.00044   1.05213
   D375      -3.13725  -0.00002  -0.00060   0.00108   0.00048  -3.13677
   D376      -1.05563  -0.00002  -0.00066  -0.00156  -0.00222  -1.05785
   D377       1.06776  -0.00003  -0.00066  -0.00161  -0.00226   1.06550
   D378      -3.13549  -0.00003  -0.00066  -0.00161  -0.00227  -3.13776
   D379       3.11603   0.00000  -0.00068  -0.00131  -0.00199   3.11404
   D380      -1.04377  -0.00000  -0.00067  -0.00136  -0.00203  -1.04580
   D381       1.03617  -0.00000  -0.00068  -0.00137  -0.00205   1.03413
   D382       1.05364  -0.00001  -0.00062  -0.00148  -0.00210   1.05154
   D383      -3.10616  -0.00001  -0.00062  -0.00153  -0.00215  -3.10830
   D384      -1.02622  -0.00001  -0.00062  -0.00154  -0.00216  -1.02837
   D385       1.05420  -0.00001  -0.00058   0.00032  -0.00026   1.05394
   D386      -3.13586  -0.00001  -0.00044   0.00018  -0.00026  -3.13612
   D387      -1.04100  -0.00001  -0.00049   0.00016  -0.00033  -1.04133
   D388      -3.13474  -0.00000  -0.00071   0.00054  -0.00017  -3.13491
   D389      -1.04161  -0.00001  -0.00057   0.00041  -0.00016  -1.04178
   D390       1.05325  -0.00001  -0.00062   0.00039  -0.00023   1.05302
   D391      -1.08800   0.00002  -0.00065   0.00060  -0.00005  -1.08805
   D392       1.00513   0.00002  -0.00051   0.00046  -0.00005   1.00508
   D393       3.09999   0.00001  -0.00056   0.00044  -0.00012   3.09987
   D394       1.05260  -0.00001   0.00017   0.00017   0.00034   1.05294
   D395      -3.13743  -0.00001   0.00016   0.00014   0.00030  -3.13714
   D396      -1.04404  -0.00001   0.00014   0.00014   0.00027  -1.04377
   D397      -1.04266   0.00002   0.00018   0.00031   0.00049  -1.04216
   D398       1.05049   0.00001   0.00017   0.00028   0.00045   1.05094
   D399      -3.13930   0.00001   0.00014   0.00028   0.00043  -3.13887
   D400      -3.09147   0.00001   0.00016   0.00026   0.00041  -3.09106
   D401      -0.99832   0.00000   0.00014   0.00022   0.00037  -0.99796
   D402       1.09507   0.00000   0.00012   0.00022   0.00034   1.09542
   D403      -1.05099   0.00001  -0.00007   0.00072   0.00065  -1.05034
   D404       1.04535   0.00000  -0.00007   0.00066   0.00060   1.04594
   D405       3.13814   0.00001  -0.00004   0.00069   0.00065   3.13879
   D406       1.04509   0.00001  -0.00011   0.00065   0.00055   1.04563
   D407       3.14142   0.00000  -0.00010   0.00059   0.00049  -3.14127
   D408      -1.04897   0.00001  -0.00008   0.00063   0.00055  -1.04842
   D409       3.09385  -0.00000  -0.00007   0.00064   0.00057   3.09442
   D410      -1.09300  -0.00001  -0.00006   0.00058   0.00051  -1.09249
   D411       0.99979  -0.00001  -0.00004   0.00061   0.00057   1.00036
   D412      -1.06316   0.00000   0.00036  -0.00200  -0.00164  -1.06480
   D413       1.05945   0.00000   0.00041  -0.00207  -0.00166   1.05779
   D414       3.14018   0.00001   0.00036  -0.00197  -0.00161   3.13857
   D415       3.11009  -0.00001   0.00039  -0.00205  -0.00166   3.10842
   D416      -1.05049  -0.00001   0.00044  -0.00213  -0.00168  -1.05217
   D417       1.03023  -0.00001   0.00039  -0.00202  -0.00163   1.02860
   D418       1.04518  -0.00001   0.00036  -0.00201  -0.00165   1.04353
   D419      -3.11540  -0.00001   0.00041  -0.00208  -0.00167  -3.11707
   D420      -1.03467  -0.00001   0.00036  -0.00198  -0.00162  -1.03630
   D421      -1.12535   0.00010   0.00241   0.00236   0.00477  -1.12058
   D422       2.08625   0.00008   0.00205   0.00182   0.00386   2.09012
   D423       3.05781   0.00002   0.00194   0.00226   0.00420   3.06200
   D424      -0.01378  -0.00000   0.00158   0.00171   0.00329  -0.01049
   D425       0.85832   0.00000   0.00168   0.00228   0.00396   0.86228
   D426      -2.21327  -0.00002   0.00132   0.00173   0.00305  -2.21021
   D427      -3.08930  -0.00001  -0.00137   0.00041  -0.00096  -3.09026
   D428       0.06125  -0.00000  -0.00142   0.00060  -0.00083   0.06042
   D429      -0.01935   0.00001  -0.00098   0.00096  -0.00003  -0.01938
   D430       3.13119   0.00002  -0.00104   0.00114   0.00010   3.13130
   D431       3.08453  -0.00001   0.00246  -0.00136   0.00110   3.08563
   D432      -0.07402   0.00002   0.00022   0.00072   0.00094  -0.07309
   D433       0.01462  -0.00002   0.00212  -0.00191   0.00020   0.01482
   D434       3.13925   0.00001  -0.00013   0.00017   0.00004   3.13929
   D435       0.01057   0.00000  -0.00045   0.00026  -0.00019   0.01038
   D436      -3.12134   0.00000  -0.00002   0.00008   0.00006  -3.12128
   D437      -3.14008  -0.00001  -0.00039   0.00007  -0.00032  -3.14040
   D438       0.01120  -0.00001   0.00004  -0.00012  -0.00007   0.01112
   D439      -0.00115   0.00002  -0.00183   0.00166  -0.00016  -0.00131
   D440       3.12395   0.00001  -0.00141   0.00095  -0.00047   3.12348
   D441      -3.12542  -0.00001   0.00047  -0.00047  -0.00000  -3.12542
   D442      -0.00033  -0.00002   0.00088  -0.00119  -0.00031  -0.00063
   D443       0.00252  -0.00000   0.00071  -0.00049   0.00022   0.00274
   D444      -3.13486   0.00001  -0.00001   0.00047   0.00046  -3.13440
   D445       3.13439  -0.00000   0.00028  -0.00030  -0.00003   3.13436
   D446      -0.00299   0.00001  -0.00045   0.00066   0.00021  -0.00278
   D447      -0.00731  -0.00001   0.00044  -0.00049  -0.00004  -0.00735
   D448       3.13007  -0.00002   0.00117  -0.00145  -0.00028   3.12979
   D449      -3.13227   0.00000   0.00003   0.00024   0.00026  -3.13201
   D450       0.00510  -0.00001   0.00075  -0.00072   0.00003   0.00513
         Item               Value     Threshold  Converged?
 Maximum Force            0.000158     0.000450     YES
 RMS     Force            0.000023     0.000300     YES
 Maximum Displacement     0.098670     0.001800     NO 
 RMS     Displacement     0.015809     0.001200     NO 
 Predicted change in Energy=-4.783435D-06
 Lowest energy point so far.  Saving SCF results.
 GradGradGradGradGradGradGradGradGradGradGradGradGradGradGradGradGradGrad

[...]
 Alpha virt. eigenvalues --    2.68111   2.68268   2.68546   2.68693   2.68952
 Alpha virt. eigenvalues --    2.69148   2.69378   2.69592   2.69923   2.69980
 Alpha virt. eigenvalues --    2.70201   2.70374   2.70789   2.70993   2.71604
 Alpha virt. eigenvalues --    2.71941   2.72013   2.72186   2.73620   2.74703
 Alpha virt. eigenvalues --    2.74814   2.75082   2.75646   2.75850   2.75857
 Alpha virt. eigenvalues --    2.75994   2.76143   2.76221   2.76683   2.77011
 Alpha virt. eigenvalues --    2.77283   2.77845   2.79142   2.79568   2.79789
 Alpha virt. eigenvalues --    2.79955   2.80001   2.80130   2.80204   2.80311
 Alpha virt. eigenvalues --    2.80475   2.80557   2.80589   2.80839   2.80917
 Alpha virt. eigenvalues --    2.80939   2.81003   2.81229   2.81523   2.81695
 Alpha virt. eigenvalues --    2.81777   2.82113   2.82447   2.82512   2.82924
 Alpha virt. eigenvalues --    2.83270   2.83324   2.83496   2.83876   2.84465
 Alpha virt. eigenvalues --    2.84763   2.84964   2.85487   2.85818   2.86330
 Alpha virt. eigenvalues --    2.86778   2.87271   2.87837   2.88222   2.89536
 Alpha virt. eigenvalues --    2.90136   2.90241   2.90586   2.91177   2.91553
 Alpha virt. eigenvalues --    2.91943   2.92270   2.92422   2.92652   2.92669
 Alpha virt. eigenvalues --    2.92703   2.92782   2.93114   2.93459   2.93607
 Alpha virt. eigenvalues --    2.93731   2.93755   2.93843   2.94050   2.94530
 Alpha virt. eigenvalues --    2.94634   2.94783   2.95140   2.95237   2.95528
 Alpha virt. eigenvalues --    2.96161   2.97295   2.97885   2.99185   2.99194
 Alpha virt. eigenvalues --    2.99224   2.99435   2.99455   2.99526   2.99818
 Alpha virt. eigenvalues --    3.00171   3.00248   3.00554   3.00630   3.00964
 Alpha virt. eigenvalues --    3.01164   3.01878   3.01955   3.02094   3.02473
 Alpha virt. eigenvalues --    3.02679   3.03348   3.03807   3.04091   3.04462
 Alpha virt. eigenvalues --    3.05614   3.06308   3.07107   3.09294   3.09425
 Alpha virt. eigenvalues --    3.09561   3.09700   3.10343   3.10822   3.11938
 Alpha virt. eigenvalues --    3.15024   3.16038   3.16992   3.17959   3.18225
 Alpha virt. eigenvalues --    3.19553   3.20234   3.20814   3.21568   3.22601
 Alpha virt. eigenvalues --    3.24016   3.24105   3.24172   3.24508   3.25085
 Alpha virt. eigenvalues --    3.25703   3.25746   3.26029   3.27560   3.27938
 Alpha virt. eigenvalues --    3.28602   3.29208   3.29682   3.29747   3.29837
 Alpha virt. eigenvalues --    3.30053   3.30207   3.30691   3.30884   3.30936
 Alpha virt. eigenvalues --    3.31099   3.31221   3.31465   3.31614   3.32103
 Alpha virt. eigenvalues --    3.33413   3.34004   3.34944   3.35499   3.36073
 Alpha virt. eigenvalues --    3.37283   3.39313   3.39611   3.40010   3.40267
 Alpha virt. eigenvalues --    3.41073   3.41504   3.43502   3.46170   3.46384
 Alpha virt. eigenvalues --    3.46718   3.47131   3.47933   3.48404   3.48610
 Alpha virt. eigenvalues --    3.48642   3.48723   3.49278   3.49317   3.49323
 Alpha virt. eigenvalues --    3.49380   3.49389   3.49744   3.49768   3.49813
 Alpha virt. eigenvalues --    3.49915   3.50073   3.50108   3.50156   3.50470
 Alpha virt. eigenvalues --    3.50490   3.50821   3.50856   3.50925   3.51346
 Alpha virt. eigenvalues --    3.51509   3.51790   3.52075   3.52570   3.52826
 Alpha virt. eigenvalues --    3.56613   3.57350   3.57652   3.57931   3.57986
 Alpha virt. eigenvalues --    3.58075   3.58119   3.58762   3.58786   3.59206
 Alpha virt. eigenvalues --    3.60161   3.60261   3.60485   3.60521   3.61108
 Alpha virt. eigenvalues --    3.61617   3.67741   3.78949   3.79472   3.81022
 Alpha virt. eigenvalues --    3.87593   3.87976   3.89645   3.92475   4.00387
 Alpha virt. eigenvalues --    4.12820   4.14743   4.17047   4.18326   4.18749
 Alpha virt. eigenvalues --    4.21020   4.21161   4.21915   4.22818   4.24819
 Alpha virt. eigenvalues --    4.25235   4.25702   4.26935   4.27364   4.27464
 Alpha virt. eigenvalues --    4.28110   4.29467   4.29643   4.30224   4.30645
 Alpha virt. eigenvalues --    4.30821   4.31463   4.33127   4.35384   4.37495
 Alpha virt. eigenvalues --    4.40996   4.43888   4.44789   4.45003   4.45308
 Alpha virt. eigenvalues --    4.45498   4.45968   4.46328   4.46682   4.46997
 Alpha virt. eigenvalues --    4.50919   4.51522   4.51886   4.53110   4.53439
 Alpha virt. eigenvalues --    4.55569   4.56278   4.59157   4.59586   4.59950
 Alpha virt. eigenvalues --    4.60401   4.60801   4.60908   4.60922   4.61056
 Alpha virt. eigenvalues --    4.61412   4.61517   4.61722   4.62144   4.62404
 Alpha virt. eigenvalues --    4.63631   4.65107   4.66795   4.67108   4.67688
 Alpha virt. eigenvalues --    4.68000   4.68623   4.68991   4.78879   4.79071
 Alpha virt. eigenvalues --    4.79221   4.79935   4.80062   4.80802   4.87643
 Alpha virt. eigenvalues --    4.90844   4.92499   4.93628   4.95103   5.00281
 Alpha virt. eigenvalues --    5.01047   5.02161
          Condensed to atoms (all electrons):
 Mulliken charges:
               1
     1  C    0.312533
     2  C    0.312351
     3  C   -0.165261
     4  C    0.016874
     5  C   -0.164137
     6  C    0.017046
     7  C   -0.178248
     8  H    0.141175
     9  C   -0.194268
    10  C   -0.177785
    11  H    0.135480
    12  C   -0.194355
    13  C    0.119022
    14  H    0.124248
    15  H    0.124514
    16  C    0.118895
    17  H    0.122892
    18  H    0.124712
    19  C    0.178212
    20  C   -0.080588
    21  C    0.172002
    22  C   -0.228129
    23  C    0.194131
    24  C   -0.088952
    25  C    0.329747
    26  C    0.327006
    27  C   -0.150621
    28  C    0.033842
    29  C   -0.169981
    30  C    0.033683
    31  C   -0.179758
    32  H    0.137062
    33  C   -0.206301
    34  C   -0.180757
    35  H    0.123582
    36  C   -0.205307
    37  C    0.116875
    38  H    0.119412
    39  H    0.120358
    40  C    0.117354
    41  H    0.114529
    42  H    0.123583
    43  C    0.292011
    44  C    0.308952
    45  C   -0.143174
    46  C    0.015026
    47  C   -0.162858
    48  C    0.035243
    49  C   -0.179609
    50  H    0.153313
    51  C   -0.204985
    52  C   -0.181875
    53  H    0.134891
    54  C   -0.195971
    55  C    0.123107
    56  H    0.124416
    57  H    0.121943
    58  C    0.120600
    59  H    0.120638
    60  H    0.122656
    61  C   -0.067538
    62  C   -0.067488
    63  N   -0.767250
    64  N   -0.731248
    65  N   -0.747361
    66  C   -0.066945
    67  C   -0.066932
    68  C   -0.067967
    69  C   -0.073695
    70  S    1.203558
    71  C   -0.212094
    72  C   -0.108394
    73  C   -0.112246
    74  C   -0.125652
    75  H    0.170405
    76  C   -0.132392
    77  H    0.185787
    78  C   -0.121581
    79  H    0.146076
    80  H    0.147311
    81  H    0.144829
    82  O   -0.532962
    83  O   -0.553608
    84  H    0.193651
    85  H    0.198700
    86  C   -0.361808
    87  H    0.123041
    88  H    0.122733
    89  H    0.134545
    90  C   -0.362108
    91  H    0.122844
    92  H    0.123011
    93  H    0.135568
    94  C   -0.384593
    95  H    0.129415
    96  H    0.130609
    97  H    0.126614
    98  C   -0.362096
    99  H    0.122983
   100  H    0.122445
   101  H    0.135792
   102  C   -0.361789
   103  H    0.122413
   104  H    0.123036
   105  H    0.134662
   106  C   -0.384687
   107  H    0.131080
   108  H    0.129824
   109  H    0.126510
   110  C   -0.362922
   111  H    0.124207
   112  H    0.123560
   113  H    0.134602
   114  C   -0.362136
   115  H    0.126839
   116  H    0.130683
   117  H    0.123935
   118  C   -0.378995
   119  H    0.125914
   120  H    0.130083
   121  H    0.126817
   122  C   -0.361975
   123  H    0.123299
   124  H    0.123049
   125  H    0.135641
   126  C   -0.383484
   127  H    0.127152
   128  H    0.131015
   129  H    0.127089
   130  C   -0.362083
   131  H    0.129083
   132  H    0.124342
   133  H    0.122254
   134  C   -0.383850
   135  H    0.128132
   136  H    0.128017
   137  H    0.124049
   138  C   -0.361636
   139  H    0.119401
   140  H    0.123609
   141  H    0.133209
   142  C   -0.361374
   143  H    0.135606
   144  H    0.124916
   145  H    0.118667
   146  C   -0.361236
   147  H    0.121511
   148  H    0.118439
   149  H    0.132545
   150  C   -0.361622
   151  H    0.140210
   152  H    0.117066
   153  H    0.122213
   154  C   -0.385064
   155  H    0.133123
   156  H    0.127772
   157  H    0.122322
 Sum of Mulliken charges =  -0.00000
 Mulliken charges with hydrogens summed into heavy atoms:
               1
     1  C    0.312533
     2  C    0.312351
     3  C   -0.024086
     4  C    0.016874
     5  C   -0.028657
     6  C    0.017046
     7  C   -0.054000
     9  C   -0.069754
    10  C   -0.054892
    12  C   -0.069642
    13  C    0.119022
    16  C    0.118895
    19  C    0.178212
    20  C    0.118112
    21  C    0.172002
    22  C   -0.228129
    23  C    0.194131
    24  C    0.104699
    25  C    0.329747
    26  C    0.327006
    27  C   -0.013558
    28  C    0.033842
    29  C   -0.046399
    30  C    0.033683
    31  C   -0.060346
    33  C   -0.085943
    34  C   -0.066228
    36  C   -0.081723
    37  C    0.116875
    40  C    0.117354
    43  C    0.292011
    44  C    0.308952
    45  C    0.010139
    46  C    0.015026
    47  C   -0.027968
    48  C    0.035243
    49  C   -0.055193
    51  C   -0.083042
    52  C   -0.061236
    54  C   -0.073315
    55  C    0.123107
    58  C    0.120600
    61  C   -0.067538
    62  C   -0.067488
    63  N   -0.767250
    64  N   -0.731248
    65  N   -0.747361
    66  C   -0.066945
    67  C   -0.066932
    68  C   -0.067967
    69  C   -0.073695
    70  S    1.203558
    71  C   -0.212094
    72  C    0.062011
    73  C    0.073541
    74  C    0.020424
    76  C    0.014918
    78  C    0.023248
    82  O   -0.532962
    83  O   -0.553608
    86  C    0.018511
    90  C    0.019315
    94  C    0.002045
    98  C    0.019123
   102  C    0.018322
   106  C    0.002728
   110  C    0.019448
   114  C    0.019322
   118  C    0.003819
   122  C    0.020014
   126  C    0.001772
   130  C    0.013596
   134  C   -0.003652
   138  C    0.014583
   142  C    0.017815
   146  C    0.011259
   150  C    0.017868
   154  C   -0.001847
 Electronic spatial extent (au):  <R**2>=          82775.7099
 Charge=              0.0000 electrons
 Dipole moment (field-independent basis, Debye):
    X=              1.2494    Y=              4.0315    Z=             -2.8504  Tot=              5.0930
 Quadrupole moment (field-independent basis, Debye-Ang):
   XX=           -434.3831   YY=           -467.9489   ZZ=           -445.3695
   XY=              2.9631   XZ=             -8.0668   YZ=             14.1173
 Traceless Quadrupole moment (field-independent basis, Debye-Ang):
   XX=             14.8507   YY=            -18.7150   ZZ=              3.8643
   XY=              2.9631   XZ=             -8.0668   YZ=             14.1173
 Octapole moment (field-independent basis, Debye-Ang**2):
  XXX=            194.9109  YYY=            -54.4122  ZZZ=            -15.0020  XYY=            -61.1749
  XXY=            140.6766  XXZ=            -27.5840  XZZ=             -8.9799  YZZ=             32.7659
  YYZ=             12.2162  XYZ=             49.3204
 Hexadecapole moment (field-independent basis, Debye-Ang**3):
 XXXX=         -44004.3186 YYYY=         -41092.0382 ZZZZ=         -25971.9425 XXXY=           -290.2343
 XXXZ=            -27.3656 YYYX=            146.3304 YYYZ=            227.8115 ZZZX=              4.5597
 ZZZY=             28.3188 XXYY=         -14147.2243 XXZZ=         -11459.8446 YYZZ=         -10998.0182
 XXYZ=            101.0866 YYXZ=            -57.9250 ZZXY=            -26.6347
 N-N= 1.339545092387D+04 E-N=-3.493083354192D+04  KE= 3.473313367594D+03
 Leave Link  601 at Mon Aug 19 19:50:41 2024, MaxMem=  2147483648 cpu:              28.0 elap:               3.6
 (Enter /apps/gaussian/g16/l9999.exe)

 Test job not archived.
 1\1\GINC-PMLP-HPCCLSAP04\FOpt\RwB97XD TDA-FC\6-31G(d,p)\C72H79N3O2S1\W
 ILLIAM1\19-Aug-2024\0\\#p opt wb97xd/6-31G** iop(3/107=0109400000,3/10
 8=0109400000) TDA=(singlets, nstates=4, root=1)\\Tuning input file gen
 erated by xtune with parameters: w01094\\0,1\C,0.9407778947,4.01153598
 08,0.9619545154\C,0.2790999583,4.0330086683,-1.190230996\C,1.279356113
 4,3.6508869651,2.2628031407\C,1.047361197,5.351813526,0.5237768\C,-0.1
 702840284,3.6987581466,-2.4642937069\C,0.6199868588,5.3660846271,-0.86
 24294709\C,1.7276536915,4.6529463876,3.1201349884\H,1.2023852285,2.621
 212742,2.5941772305\C,1.4993358654,6.3316300467,1.4073417733\C,-0.2759
 465426,4.7189484734,-3.406805912\H,-0.4222985694,2.6741600263,-2.71468
 7904\C,0.5026321415,6.3644365505,-1.8289520638\C,1.847720557,5.9999738
 67,2.7218468817\H,1.9933376026,4.3662289035,4.1305463528\H,1.579226660
 2,7.35779726,1.0611540211\C,0.0519665849,6.0592809714,-3.1187244812\H,
 -0.6229103991,4.4526236198,-4.3980480431\H,0.7681840015,7.3846600743,-
 1.5684332201\C,0.2201549534,1.8246930133,-0.0151146807\C,-1.0667297562
 ,1.3436185878,0.2702849181\C,-1.3101344614,-0.0073093009,0.3786046641\
 C,-0.2943527314,-1.0292895696,0.168752483\C,1.0172586819,-0.4736229052
 ,-0.1381643787\C,1.2488465426,0.8740473493,-0.2404453011\C,-3.25177162
 4,-0.4678794993,1.8864322728\C,-3.6042988257,-0.7109473557,-0.31399498
 09\C,-2.6696837034,-0.2390762502,3.13311578\C,-4.6072365672,-0.8618603
 244,1.7490991729\C,-3.4413970145,-0.764534363,-1.694972916\C,-4.835301
 2,-1.0253069516,0.3118819566\C,-3.4778290228,-0.4066960741,4.256124652
 \H,-1.6254973589,0.0298595748,3.2180758278\C,-5.3826093579,-1.01781006
 25,2.874624843\C,-4.5483050647,-1.1456652876,-2.4556703692\H,-2.490004
 461,-0.5254350347,-2.150823507\C,-5.9114207906,-1.3988779013,-0.461942
 6169\C,-4.8243585664,-0.7908378469,4.1625129071\H,-3.0315330152,-0.241
 111015,5.2270003854\H,-6.4187406092,-1.3225856522,2.7797361088\C,-5.78
 40316398,-1.4673214158,-1.8746357363\H,-4.4312063536,-1.1927644717,-3.
 5299825424\H,-6.8556435359,-1.6469383267,0.0098248148\C,3.1551740906,-
 1.6940705859,0.3893439936\C,2.3200578285,-1.9264425493,-1.6890379895\C
 ,3.3715264354,-1.3631700372,1.7265724133\C,4.0584207188,-2.5163524577,
 -0.3160938151\C,1.5590813078,-1.842389822,-2.8501730154\C,3.5210420305
 ,-2.6702421508,-1.6522686032\C,4.5075953285,-1.8746109553,2.3373849308
 \H,2.6608436537,-0.7549064991,2.2720099378\C,5.1950225782,-3.015374297
 5,0.3291074899\C,2.0056055483,-2.5349591861,-3.9723079594\H,0.64523357
 15,-1.2600341569,-2.8749303082\C,3.9387854705,-3.3559376856,-2.7916645
 798\C,5.4380867217,-2.7032646774,1.6662963422\H,4.6760229998,-1.624987
 4939,3.3802580074\H,5.8761297474,-3.6483176981,-0.2274416114\C,3.18613
 35496,-3.3047429395,-3.9705074196\H,1.4090756423,-2.46840415,-4.874298
 7149\H,4.8592974567,-3.930585589,-2.7532217932\C,2.3468658475,7.102842
 0958,3.6739624156\C,-0.064461639,7.1830030961,-4.1653648912\N,0.474016
 5719,3.2176307779,-0.0806955302\N,-2.6739068427,-0.3780580428,0.644956
 1305\N,2.0944479019,-1.3558581769,-0.4432280462\C,-5.7133127947,-0.987
 4802569,5.3967443363\C,-7.0007146553,-1.894881553,-2.7067843332\C,3.67
 33434944,-4.0739210404,-5.2122414809\C,6.6649172501,-3.2281466211,2.43
 19459289\S,-0.4182646367,-2.522617564,1.1188419804\C,0.4394838536,-3.7
 92066334,0.1861505971\C,-0.0535525951,-4.1669918269,-1.0637035506\C,1.
 5314709367,-4.4365471566,0.7601821049\C,0.5761898426,-5.1939911998,-1.
 7596032356\H,-0.9105191665,-3.6527976294,-1.4823815021\C,2.1509728768,
 -5.4685412073,0.0563971531\H,1.8899163848,-4.1178960424,1.7312611198\C
 ,1.6783800578,-5.8427717745,-1.1999588159\H,0.2140599865,-5.4817737475
 ,-2.7401577699\H,3.0125509588,-5.9663505863,0.4869900206\H,2.171319514
 8,-6.6383799163,-1.7479611186\O,0.2613354627,-2.4144096257,2.427597513
 2\O,-1.844588656,-2.9098919332,1.1246692089\H,2.2378618057,1.214090011
 8,-0.5277250638\H,-1.883444799,2.0471535123,0.3945096958\C,1.323514011
 3,7.8250232959,-4.3880790464\H,1.2617985546,8.6256534051,-5.1335221169
 \H,1.7217125738,8.2589232769,-3.4666735344\H,2.0423883127,7.0806603337
 ,-4.7432370416\C,-1.0523373504,8.2582689411,-3.6593607005\H,-0.7195100
 352,8.7031433872,-2.7174444132\H,-1.1501718974,9.0663454672,-4.3927974
 982\H,-2.0435217496,7.8260449033,-3.4916658928\C,-0.5746513209,6.67019
 35805,-5.5241868767\H,0.0998606989,5.9243048698,-5.9561582497\H,-1.572
 4669936,6.2274746719,-5.4428225185\H,-0.6406127369,7.5030849943,-6.231
 1461565\C,1.2537616003,8.1842614483,3.8282596513\H,1.5902956432,8.9773
 12426,4.5052398471\H,1.0051869051,8.6489780737,2.8700554597\H,0.335458
 9265,7.7518501562,4.2370265974\C,3.6261687417,7.7452830046,3.091822854
 8\H,3.4429551055,8.1981889154,2.1134589722\H,3.9991484373,8.5311923787
 ,3.7579556178\H,4.4146739355,6.9967362348,2.9697851769\C,2.6818496882,
 6.5619303338,5.075712428\H,1.8066870664,6.1163377774,5.5591472413\H,3.
 4772473931,5.810915593,5.042098555\H,3.0291048817,7.3809060055,5.71332
 78264\C,7.5073586936,-2.0357729387,2.9386645237\H,6.9365188312,-1.3934
 651105,3.6148767181\H,8.3887152668,-2.3921798366,3.4833517498\H,7.8480
 499193,-1.4190665721,2.1016109966\C,6.1964956568,-4.0760521886,3.63617
 37666\H,5.5855884808,-3.4929907725,4.3306996115\H,5.5971107816,-4.9278
 451854,3.3004142731\H,7.0578187897,-4.4615790052,4.1929313596\C,7.5687
 078528,-4.1096008423,1.5515367764\H,7.0388373867,-4.9943589535,1.18442
 5947\H,7.9571956299,-3.5581009043,0.6896194943\H,8.4267073951,-4.45791
 05294,2.1349098535\C,5.0703165597,-3.5573205687,-5.6241764874\H,5.8057
 888069,-3.6994695698,-4.8276064474\H,5.4320536858,-4.0902525263,-6.510
 5751543\H,5.0347170735,-2.4889749384,-5.8572568757\C,2.7299270963,-3.9
 051204698,-6.4168228264\H,1.7242453812,-4.2797117905,-6.2006751545\H,2
 .6489412689,-2.8582423292,-6.7256326709\H,3.1160194692,-4.4713389542,-
 7.2702031294\C,3.7602543952,-5.5810287312,-4.8829747931\H,2.7788454174
 ,-5.970164473,-4.5960260588\H,4.1120913631,-6.1464123492,-5.7531082578
 \H,4.4506060192,-5.7758855406,-4.0576836609\C,-6.7027273278,-1.9166585
 373,-4.2163253878\H,-6.417015901,-0.9288369184,-4.5904118355\H,-5.9087
 775446,-2.6271689809,-4.4651915698\H,-7.5998998848,-2.2254048902,-4.75
 97251229\C,-8.1604389665,-0.9026787595,-2.4562170262\H,-9.0348231391,-
 1.1934527397,-3.0464290402\H,-8.4644193231,-0.8809332876,-1.4060923977
 \H,-7.8758534586,0.1130049964,-2.7456143116\C,-7.4306935283,-3.3171481
 368,-2.2767289739\H,-6.6198706241,-4.0343302151,-2.4317831811\H,-7.718
 7627538,-3.3592704071,-1.2228269711\H,-8.2926138158,-3.6413432986,-2.8
 679312514\C,-6.9241678872,-0.0289984611,5.3075091633\H,-7.536255671,-0
 .218660965,4.4214467528\H,-7.5657342851,-0.1569142144,6.1846600408\H,-
 6.5963491931,1.0139697688,5.2739732646\C,-6.209798908,-2.4524877911,5.
 4289983693\H,-5.368243395,-3.1490227618,5.4745446317\H,-6.8369637164,-
 2.6134114219,6.3112062051\H,-6.8073235712,-2.7045714804,4.5486736822\C
 ,-4.9667910645,-0.7014530814,6.711551224\H,-4.1151626344,-1.3736305878
 ,6.851390483\H,-4.6084185907,0.3312077598,6.7611071307\H,-5.6457254035
 ,-0.8533040641,7.5550615504\\Version=ES64L-G16RevC.01\State=1-A\HF=-35
 03.6983129\RMSD=3.461e-09\RMSF=9.132e-07\Dipole=-4.366789,-0.5658939,-
 0.0215849\PG=C01 [X(C72H79N3O2S1)]\\@


 OUR LITTLE SYSTEMS HAVE THEIR DAY,    
   THEY HAVE THEIR DAY AND CEASE TO BE.
   THEY ARE BUT BROKEN LIGHTS OF THEE, 
 AND THOU, OH LORD, ART MORE THAN THEY.
          -------------------          
 LET KNOWLEDGE GROW FROM MORE TO MORE, 
   BUT MORE OF REVERENCE IN US DWELL.  
   THAT MIND AND SOUL, ACCORDING WELL, 
 MAY MAKE ONE MUSIC AS BEFORE.....     
          -------------------          
                    LORD TENNYSON      
 Job cpu time:      27 days  8 hours 39 minutes 52.8 seconds.
 Elapsed time:       2 days 18 hours 50 minutes 35.9 seconds.
 File lengths (MBytes):  RWF=  12921 Int=      0 D2E=      0 Chk=    563 Scr=      1
 Normal termination of Gaussian 16 at Mon Aug 19 19:50:47 2024.
