 Entering Gaussian System, Link 0=g16
 Initial command:
 /apps/gaussian/g16/l1.exe "/local/Gau-711884.inp" -scrdir="/local/"
 Entering Link 1 = /apps/gaussian/g16/l1.exe PID=    711885.
  
 Copyright (c) 1988-2019, Gaussian, Inc.  All Rights Reserved.
  
 This is part of the Gaussian(R) 16 program.  It is based on
 the Gaussian(R) 09 system (copyright 2009, Gaussian, Inc.),
 the Gaussian(R) 03 system (copyright 2003, Gaussian, Inc.),
 the Gaussian(R) 98 system (copyright 1998, Gaussian, Inc.),
 the Gaussian(R) 94 system (copyright 1995, Gaussian, Inc.),
 the Gaussian 92(TM) system (copyright 1992, Gaussian, Inc.),
 the Gaussian 90(TM) system (copyright 1990, Gaussian, Inc.),
 the Gaussian 88(TM) system (copyright 1988, Gaussian, Inc.),
 the Gaussian 86(TM) system (copyright 1986, Carnegie Mellon
 University), and the Gaussian 82(TM) system (copyright 1983,
 Carnegie Mellon University). Gaussian is a federally registered
 trademark of Gaussian, Inc.
  
 This software contains proprietary and confidential information,
 including trade secrets, belonging to Gaussian, Inc.
  
 This software is provided under written license and may be
 used, copied, transmitted, or stored only in accord with that
 written license.
  
 The following legend is applicable only to US Government
 contracts under FAR:
  
                    RESTRICTED RIGHTS LEGEND
  
 Use, reproduction and disclosure by the US Government is
 subject to restrictions as set forth in subparagraphs (a)
 and (c) of the Commercial Computer Software - Restricted
 Rights clause in FAR 52.227-19.
  
 Gaussian, Inc.
 340 Quinnipiac St., Bldg. 40, Wallingford CT 06492
  
  
 ---------------------------------------------------------------
 Warning -- This program may not be used in any manner that
 competes with the business of Gaussian, Inc. or will provide
 assistance to any competitor of Gaussian, Inc.  The licensee
 of this program is prohibited from giving any competitor of
 Gaussian, Inc. access to this program.  By using this program,
 the user acknowledges that Gaussian, Inc. is engaged in the
 business of creating and licensing software in the field of
 computational chemistry and represents and warrants to the
 licensee that it is not a competitor of Gaussian, Inc. and that
 it will not use this program in any manner prohibited above.
 ---------------------------------------------------------------
  

 Cite this work as:
 Gaussian 16, Revision C.01,
 M. J. Frisch, G. W. Trucks, H. B. Schlegel, G. E. Scuseria, 
 M. A. Robb, J. R. Cheeseman, G. Scalmani, V. Barone, 
 G. A. Petersson, H. Nakatsuji, X. Li, M. Caricato, A. V. Marenich, 
 J. Bloino, B. G. Janesko, R. Gomperts, B. Mennucci, H. P. Hratchian, 
 J. V. Ortiz, A. F. Izmaylov, J. L. Sonnenberg, D. Williams-Young, 
 F. Ding, F. Lipparini, F. Egidi, J. Goings, B. Peng, A. Petrone, 
 T. Henderson, D. Ranasinghe, V. G. Zakrzewski, J. Gao, N. Rega, 
 G. Zheng, W. Liang, M. Hada, M. Ehara, K. Toyota, R. Fukuda, 
 J. Hasegawa, M. Ishida, T. Nakajima, Y. Honda, O. Kitao, H. Nakai, 
 T. Vreven, K. Throssell, J. A. Montgomery, Jr., J. E. Peralta, 
 F. Ogliaro, M. J. Bearpark, J. J. Heyd, E. N. Brothers, K. N. Kudin, 
 V. N. Staroverov, T. A. Keith, R. Kobayashi, J. Normand, 
 K. Raghavachari, A. P. Rendell, J. C. Burant, S. S. Iyengar, 
 J. Tomasi, M. Cossi, J. M. Millam, M. Klene, C. Adamo, R. Cammi, 
 J. W. Ochterski, R. L. Martin, K. Morokuma, O. Farkas, 
 J. B. Foresman, and D. J. Fox, Gaussian, Inc., Wallingford CT, 2019.
 
 ******************************************
 Gaussian 16:  ES64L-G16RevC.01  3-Jul-2019
                18-Sep-2024 
 ******************************************
 %chk=YZ-IX-137.chk
 %nprocshared=16
 Will use up to   16 processors via shared memory.
 %mem=16GB
 ----------------------------------------------------------------------
 #p opt=Restart wb97xd/6-31G** iop(3/107=0105700000,3/108=0105700000) T
 DA=(singlets, nstates=4, root=1)
 ----------------------------------------------------------------------
 1/18=20,19=15,26=3,35=1/3(2);
 2/9=110/2;
 99//99;
 2/9=110/2;
 3/5=1,6=6,7=101,11=9,25=1,30=1,71=1,74=-58,107=105700000,108=105700000/1,2,3,8;
 4/5=5,16=3,69=1/1;
 5/5=2,38=5/2;
 8/6=1,10=2,107=1,108=4/1;
 9/8=1,15=2,41=4,42=1,48=1,49=4/14;
 10/5=4,28=1/2;
 7/12=6,13=5,14=1/1,2,3,16;
 1/18=20,19=15,26=3/3(-8);
 2/9=110/2;
 6/7=2,8=2,9=2,10=2/1;
 99/9=10/99;
 Leave Link    1 at Wed Sep 18 04:49:32 2024, MaxMem=  2147483648 cpu:               0.5 elap:               0.0
 (Enter /apps/gaussian/g16/l103.exe)

 GradGradGradGradGradGradGradGradGradGradGradGradGradGradGradGradGradGrad
 Berny optimization.
 Restoring state from the checkpoint file "YZ-IX-137.chk".
 ONIOM results not found on unit 2.
 Title:  Tuning input file generated by xtune with parameters: w01057
 Route:  #p opt wb97xd/6-31G** iop(3/107=0105700000,3/108=0105700000) TDA=(single
 ts, nstates=4, root=1)
 FncErr=1.00D-07 GrdErr=1.00D-06 EigMax=2.50D+02 EigMin=1.00D-04
 Using GEDIIS/GDIIS optimizer.
 FormGI is forming the generalized inverse of G from B-inverse, IUseBI=4.
 Internal  Forces:  Max     0.000052197 RMS     0.000006757
 Search for a local minimum.
 Step number  53 out of a maximum of  930
 All quantities printed in internal units (Hartrees-Bohrs-Radians)
 RMS Force = .67575D-05 SwitMx=.10000D-02 MixMth= 2
 Mixed Optimization -- En-DIIS/RFO-DIIS
 Swapping is turned off.
 Update second derivatives using D2CorX and points   26   27   28   29   31
                                                     32   30   33   35   36
                                                     37   38   39   40   41
                                                     42   43   44   45   46
                                                     47   48   49   50   51
                                                     52   53
 DE=  8.93D-07 DEPred=-6.44D-07 R=-1.39D+00
 Trust test=-1.39D+00 RLast= 1.06D-02 DXMaxT set to 5.00D-02
 ITU= -1 -1  0  0  0  0  1  1  1  1 -1  1  1  1 -1 -1  1  0 -1 -1
 ITU= -1  0 -1  1 -1  1  1  1  1  1  1  1  1  1  1  1  1  1  1  1
 ITU=  0  1  0  0 -1 -1  0  0 -1 -1  1  1  0
     Eigenvalues ---    0.00184   0.00201   0.00221   0.00223   0.00226
     Eigenvalues ---    0.00230   0.00230   0.00231   0.00232   0.00233
     Eigenvalues ---    0.00234   0.00235   0.00237   0.00239   0.00246
     Eigenvalues ---    0.00251   0.00262   0.00278   0.00348   0.00375
     Eigenvalues ---    0.00400   0.00472   0.00479   0.00506   0.00529
     Eigenvalues ---    0.00588   0.00648   0.00769   0.00949   0.01163
     Eigenvalues ---    0.01218   0.01339   0.01352   0.01407   0.01441
     Eigenvalues ---    0.01473   0.01529   0.01544   0.01570   0.01617
     Eigenvalues ---    0.01673   0.01734   0.01743   0.01759   0.01819
     Eigenvalues ---    0.01899   0.01915   0.01939   0.01945   0.01956
     Eigenvalues ---    0.01960   0.01969   0.01978   0.01991   0.02011
     Eigenvalues ---    0.02033   0.02037   0.02049   0.02061   0.02069
     Eigenvalues ---    0.02076   0.02084   0.02089   0.02096   0.02103
     Eigenvalues ---    0.02109   0.02113   0.02121   0.02126   0.02135
     Eigenvalues ---    0.02137   0.02137   0.02145   0.02148   0.02151
     Eigenvalues ---    0.02156   0.02158   0.02159   0.02163   0.02167
     Eigenvalues ---    0.02168   0.02173   0.02177   0.02181   0.02187
     Eigenvalues ---    0.02197   0.02214   0.02221   0.02226   0.02238
     Eigenvalues ---    0.02269   0.02286   0.02314   0.02421   0.02515
     Eigenvalues ---    0.02607   0.02799   0.03019   0.03061   0.03612
     Eigenvalues ---    0.03897   0.04040   0.04924   0.04953   0.04966
     Eigenvalues ---    0.04989   0.05007   0.05030   0.05073   0.05104
     Eigenvalues ---    0.05119   0.05162   0.05175   0.05202   0.05239
     Eigenvalues ---    0.05255   0.05265   0.05269   0.05271   0.05281
     Eigenvalues ---    0.05293   0.05305   0.05319   0.05339   0.05346
     Eigenvalues ---    0.05363   0.05369   0.05373   0.05375   0.05378
     Eigenvalues ---    0.05382   0.05393   0.05409   0.05416   0.05430
     Eigenvalues ---    0.05480   0.05485   0.05486   0.05489   0.05491
     Eigenvalues ---    0.05495   0.05501   0.05513   0.05522   0.05525
     Eigenvalues ---    0.05533   0.05536   0.05569   0.05579   0.05580
     Eigenvalues ---    0.05591   0.05597   0.05623   0.05703   0.05942
     Eigenvalues ---    0.06090   0.07510   0.10407   0.10560   0.13453
     Eigenvalues ---    0.14295   0.14585   0.14721   0.14778   0.14844
     Eigenvalues ---    0.14902   0.15087   0.15185   0.15212   0.15372
     Eigenvalues ---    0.15449   0.15573   0.15630   0.15741   0.15765
     Eigenvalues ---    0.15836   0.15863   0.15906   0.15926   0.15934
     Eigenvalues ---    0.15959   0.15964   0.15976   0.15985   0.15988
     Eigenvalues ---    0.15991   0.15995   0.15996   0.15998   0.15999
     Eigenvalues ---    0.15999   0.15999   0.15999   0.15999   0.16000
     Eigenvalues ---    0.16000   0.16000   0.16000   0.16000   0.16000
     Eigenvalues ---    0.16000   0.16000   0.16000   0.16000   0.16000
     Eigenvalues ---    0.16000   0.16000   0.16000   0.16000   0.16000
     Eigenvalues ---    0.16000   0.16000   0.16000   0.16000   0.16000
     Eigenvalues ---    0.16000   0.16000   0.16000   0.16000   0.16001
     Eigenvalues ---    0.16001   0.16001   0.16002   0.16003   0.16004
     Eigenvalues ---    0.16005   0.16007   0.16008   0.16012   0.16016
     Eigenvalues ---    0.16018   0.16027   0.16032   0.16039   0.16042
     Eigenvalues ---    0.16045   0.16057   0.16060   0.16071   0.16101
     Eigenvalues ---    0.16125   0.16157   0.16228   0.16278   0.16369
     Eigenvalues ---    0.16411   0.16456   0.16562   0.16626   0.16798
     Eigenvalues ---    0.17133   0.17438   0.18601   0.21258   0.22002
     Eigenvalues ---    0.22013   0.22362   0.22423   0.22455   0.22466
     Eigenvalues ---    0.22472   0.22538   0.22980   0.23175   0.23418
     Eigenvalues ---    0.23482   0.23525   0.23544   0.23553   0.23589
     Eigenvalues ---    0.23617   0.23697   0.23816   0.24144   0.24342
     Eigenvalues ---    0.24489   0.24562   0.24610   0.24666   0.24701
     Eigenvalues ---    0.24766   0.24875   0.24906   0.25047   0.25101
     Eigenvalues ---    0.25157   0.25379   0.25527   0.25607   0.25911
     Eigenvalues ---    0.26125   0.26214   0.26712   0.27027   0.27623
     Eigenvalues ---    0.27807   0.27890   0.27974   0.28031   0.28035
     Eigenvalues ---    0.28050   0.28062   0.28072   0.28096   0.28104
     Eigenvalues ---    0.28161   0.28262   0.28391   0.28552   0.28568
     Eigenvalues ---    0.28587   0.28611   0.28629   0.28650   0.28721
     Eigenvalues ---    0.28772   0.28897   0.29012   0.29468   0.30950
     Eigenvalues ---    0.31507   0.33968   0.34184   0.34186   0.34191
     Eigenvalues ---    0.34197   0.34201   0.34204   0.34205   0.34206
     Eigenvalues ---    0.34208   0.34209   0.34213   0.34223   0.34278
     Eigenvalues ---    0.34286   0.34292   0.34293   0.34301   0.34304
     Eigenvalues ---    0.34306   0.34309   0.34314   0.34319   0.34324
     Eigenvalues ---    0.34325   0.34328   0.34331   0.34334   0.34335
     Eigenvalues ---    0.34338   0.34340   0.34344   0.34350   0.34352
     Eigenvalues ---    0.34353   0.34356   0.34357   0.34363   0.34370
     Eigenvalues ---    0.34378   0.34389   0.34397   0.34407   0.34411
     Eigenvalues ---    0.34417   0.34422   0.34425   0.34439   0.34453
     Eigenvalues ---    0.34455   0.34473   0.34491   0.34531   0.34597
     Eigenvalues ---    0.34807   0.35178   0.35341   0.35350   0.35357
     Eigenvalues ---    0.35366   0.35382   0.35437   0.35440   0.35457
     Eigenvalues ---    0.35475   0.35482   0.35511   0.35523   0.35557
     Eigenvalues ---    0.35560   0.35595   0.35614   0.35630   0.35644
     Eigenvalues ---    0.35662   0.35708   0.35738   0.35751   0.35815
     Eigenvalues ---    0.35956   0.36129   0.36229   0.36466   0.36816
     Eigenvalues ---    0.36913   0.37658   0.38999   0.39918   0.40264
     Eigenvalues ---    0.40455   0.40707   0.41331   0.42187   0.42221
     Eigenvalues ---    0.42318   0.42364   0.42479   0.42507   0.42649
     Eigenvalues ---    0.42793   0.42945   0.42981   0.43114   0.43402
     Eigenvalues ---    0.43499   0.43688   0.43919   0.44154   0.44229
     Eigenvalues ---    0.44289   0.44667   0.44777   0.45022   0.45186
     Eigenvalues ---    0.45397   0.45476   0.45605   0.45678   0.45790
     Eigenvalues ---    0.45869   0.46059   0.46187   0.46413   0.46456
     Eigenvalues ---    0.46565   0.46627   0.46673   0.46704   0.46739
     Eigenvalues ---    0.46806   0.46832   0.46840   0.46928   0.47027
     Eigenvalues ---    0.47132   0.47199   0.47378   0.47582   0.48572
     Eigenvalues ---    0.49377   0.53766   0.63469   0.89423   0.89900
 En-DIIS/RFO-DIIS/Sim-DIIS IScMMF=       -3 using points:    53   52   51   50   49   48   47   46   45   44
 RFO step:  Lambda=-3.83919274D-07.
 NNeg= 0 NGDIIS=10 SimSw=  2.50D-03 Rises=T DC=  8.93D-07 SmlDif=  1.00D-05
 NRisDI= 1 DoIntr=F SqrtH=F CThrHd= 10.0 CDAdj=  3.0
 RMS Error=  0.2095325108D-03 NUsed=10 OKEnD=T EnDIS=T
 InvSVX:  RCond= 1.29D-07 Info=           0 Equed=N FErr=  3.28D-13 BErr=  8.72D-17
 EnCoef did   100 forward-backward iterations
 IWarn =    2
 Energies =   -3503.66551880      -3503.66552284      -3503.66552489      -3503.66552616      -3503.66552691    
 Energies =   -3503.66552734      -3503.66552750      -3503.66552786      -3503.66552787      -3503.66552697    
 Point number   1 has energy  -0.3503665519D+04 and has been removed
 EnCoef did   100 forward-backward iterations
 IWarn =    2
 Energies =   -3503.66552284      -3503.66552489      -3503.66552616      -3503.66552691      -3503.66552734    
 Energies =   -3503.66552750      -3503.66552786      -3503.66552787      -3503.66552697    
 Point number   1 has energy  -0.3503665523D+04 and has been removed
 EnCoef did   100 forward-backward iterations
 IWarn =    2
 Energies =   -3503.66552489      -3503.66552616      -3503.66552691      -3503.66552734      -3503.66552750    
 Energies =   -3503.66552786      -3503.66552787      -3503.66552697    
 Point number   1 has energy  -0.3503665525D+04 and has been removed
 EnCoef did   100 forward-backward iterations
 IWarn =    2
 Energies =   -3503.66552616      -3503.66552691      -3503.66552734      -3503.66552750      -3503.66552786    
 Energies =   -3503.66552787      -3503.66552697    
 Point number   1 has energy  -0.3503665526D+04 and has been removed
 EnCoef did   100 forward-backward iterations
 IWarn =    2
 Energies =   -3503.66552691      -3503.66552734      -3503.66552750      -3503.66552786      -3503.66552787    
 Energies =   -3503.66552697    
 Point number   1 has energy  -0.3503665527D+04 and has been removed
 EnCoef did   100 forward-backward iterations
 IWarn =    2
 Energies =   -3503.66552734      -3503.66552750      -3503.66552786      -3503.66552787      -3503.66552697    
 Point number   1 has energy  -0.3503665527D+04 and has been removed
 EnCoef did   100 forward-backward iterations
 IWarn =    2
 Energies =   -3503.66552750      -3503.66552786      -3503.66552787      -3503.66552697    
 Point number   1 has energy  -0.3503665528D+04 and has been removed
 EnCoef did   100 forward-backward iterations
 IWarn =    2
 Energies =   -3503.66552786      -3503.66552787      -3503.66552697    
 Point number   1 has energy  -0.3503665528D+04 and has been removed
 IWarn =    0
 DidBck=T Rises=T En-DIIS coefs:    0.18730    0.81270    0.00000    0.00000    0.00000
                  En-DIIS coefs:    0.00000    0.00000    0.00000    0.00000    0.00000
 Iteration  1 RMS(Cart)=  0.00187262 RMS(Int)=  0.00000030
 Iteration  2 RMS(Cart)=  0.00000068 RMS(Int)=  0.00000002
 ITry= 1 IFail=0 DXMaxC= 9.86D-03 DCOld= 1.00D+10 DXMaxT= 5.00D-02 DXLimC= 3.00D+00 Rises=F
 Variable       Old X    -DE/DX   Delta X   Delta X   Delta X     New X
                                 (Linear)    (Quad)   (Total)
    R1        2.63819   0.00001  -0.00003   0.00007   0.00004   2.63823
    R2        2.68585   0.00001   0.00001   0.00001   0.00002   2.68587
    R3        2.59555   0.00000  -0.00004   0.00004  -0.00000   2.59555
    R4        2.63169  -0.00001   0.00003  -0.00007  -0.00004   2.63165
    R5        2.67202  -0.00002  -0.00002  -0.00004  -0.00006   2.67197
    R6        2.61616   0.00001  -0.00003   0.00007   0.00004   2.61620
    R7        2.63465   0.00001   0.00003  -0.00003  -0.00001   2.63464
    R8        2.04108   0.00001   0.00000   0.00003   0.00003   2.04111
    R9        2.76081   0.00000   0.00009  -0.00008   0.00001   2.76082
   R10        2.60199  -0.00001  -0.00002   0.00001  -0.00001   2.60198
   R11        2.63856   0.00000  -0.00000   0.00005   0.00004   2.63860
   R12        2.04359   0.00001  -0.00002   0.00002  -0.00000   2.04359
   R13        2.60701   0.00001   0.00000   0.00000   0.00001   2.60702
   R14        2.64956   0.00001  -0.00001   0.00005   0.00003   2.64960
   R15        2.04261   0.00001  -0.00001  -0.00000  -0.00001   2.04261
   R16        2.68253  -0.00002   0.00002  -0.00004  -0.00001   2.68252
   R17        2.04889  -0.00000   0.00000  -0.00001  -0.00000   2.04889
   R18        2.64785   0.00001  -0.00000   0.00000  -0.00000   2.64785
   R19        2.04333   0.00001  -0.00001   0.00002   0.00001   2.04333
   R20        2.68036  -0.00000   0.00005  -0.00004   0.00000   2.68036
   R21        2.04947   0.00000  -0.00000  -0.00000  -0.00001   2.04946
   R22        2.89931   0.00001   0.00003  -0.00000   0.00002   2.89933
   R23        2.90178   0.00001   0.00001   0.00001   0.00002   2.90180
   R24        2.69924  -0.00000  -0.00000  -0.00006  -0.00006   2.69918
   R25        2.72945  -0.00001  -0.00003   0.00001  -0.00002   2.72942
   R26        2.72723  -0.00002   0.00003  -0.00006  -0.00003   2.72720
   R27        2.58742  -0.00000  -0.00004   0.00006   0.00002   2.58744
   R28        2.69699   0.00005   0.00007   0.00003   0.00010   2.69709
   R29        2.69980   0.00001   0.00006  -0.00004   0.00002   2.69982
   R30        2.04790  -0.00000   0.00002  -0.00004  -0.00002   2.04788
   R31        2.68642  -0.00002   0.00004  -0.00009  -0.00005   2.68637
   R32        3.29550   0.00000   0.00002   0.00002   0.00004   3.29554
   R33        2.58666   0.00000  -0.00000   0.00000  -0.00000   2.58666
   R34        2.04917  -0.00000  -0.00000  -0.00000  -0.00000   2.04917
   R35        2.70438   0.00003   0.00001   0.00006   0.00007   2.70445
   R36        2.92219  -0.00001  -0.00001   0.00001   0.00000   2.92219
   R37        2.92465  -0.00000   0.00000  -0.00002  -0.00002   2.92463
   R38        2.90823  -0.00001   0.00002  -0.00003  -0.00001   2.90821
   R39        2.90867   0.00000   0.00001  -0.00000   0.00001   2.90867
   R40        2.92244   0.00000   0.00004  -0.00003   0.00001   2.92245
   R41        2.92175  -0.00001  -0.00004   0.00002  -0.00002   2.92173
   R42        2.63891   0.00001   0.00001   0.00000   0.00002   2.63892
   R43        2.63864  -0.00001  -0.00001  -0.00001  -0.00002   2.63863
   R44        3.41442   0.00000   0.00008  -0.00004   0.00003   3.41446
   R45        2.63559  -0.00001  -0.00001   0.00001   0.00000   2.63559
   R46        2.04859   0.00000  -0.00001   0.00001   0.00001   2.04860
   R47        2.63371   0.00001   0.00002  -0.00001   0.00002   2.63372
   R48        2.04851  -0.00000   0.00000  -0.00000   0.00000   2.04851
   R49        2.63857   0.00001   0.00003  -0.00003   0.00000   2.63858
   R50        2.05061  -0.00000  -0.00000   0.00001   0.00000   2.05061
   R51        2.63980  -0.00001  -0.00001   0.00001  -0.00000   2.63980
   R52        2.05043  -0.00000   0.00000  -0.00001  -0.00001   2.05043
   R53        2.05055   0.00000   0.00000  -0.00000   0.00000   2.05055
   R54        2.77554  -0.00000  -0.00001   0.00001  -0.00000   2.77553
   R55        2.77603   0.00001  -0.00002   0.00003   0.00001   2.77603
   R56        2.06796   0.00000   0.00001  -0.00001  -0.00000   2.06796
   R57        2.06579   0.00000   0.00000   0.00001   0.00001   2.06580
   R58        2.06598  -0.00000   0.00000  -0.00001  -0.00001   2.06597
   R59        2.06848  -0.00000  -0.00000  -0.00001  -0.00001   2.06847
   R60        2.06670  -0.00000   0.00001  -0.00001  -0.00001   2.06670
   R61        2.06661   0.00000   0.00000  -0.00001  -0.00001   2.06660
   R62        2.06790  -0.00001  -0.00001   0.00000  -0.00001   2.06789
   R63        2.06611  -0.00000   0.00000  -0.00000   0.00000   2.06611
   R64        2.06652  -0.00000  -0.00000  -0.00000  -0.00000   2.06651
   R65        2.06774  -0.00000   0.00001  -0.00001  -0.00001   2.06773
   R66        2.06767   0.00001   0.00000   0.00001   0.00001   2.06768
   R67        2.06659  -0.00000  -0.00001   0.00001   0.00000   2.06660
   R68        2.06612  -0.00000   0.00000  -0.00000  -0.00000   2.06611
   R69        2.06832  -0.00000  -0.00000  -0.00000  -0.00000   2.06832
   R70        2.06558   0.00000   0.00000  -0.00001  -0.00001   2.06558
   R71        2.06838   0.00000  -0.00000   0.00001   0.00000   2.06838
   R72        2.06588   0.00000   0.00001  -0.00000   0.00000   2.06588
   R73        2.06647  -0.00001  -0.00001  -0.00000  -0.00001   2.06646
   R74        2.63486   0.00000   0.00003  -0.00002   0.00000   2.63486
   R75        2.63027  -0.00000   0.00000  -0.00001  -0.00001   2.63026
   R76        2.63513  -0.00000  -0.00000  -0.00001  -0.00001   2.63512
   R77        2.66615   0.00000   0.00000   0.00001   0.00001   2.66617
   R78        2.63214  -0.00000   0.00000  -0.00004  -0.00004   2.63211
   R79        2.67094  -0.00001  -0.00002   0.00001  -0.00001   2.67093
   R80        2.62415  -0.00000  -0.00001   0.00001   0.00000   2.62415
   R81        2.04802  -0.00000   0.00001  -0.00001  -0.00000   2.04801
   R82        2.73846   0.00001  -0.00002   0.00009   0.00007   2.73853
   R83        2.64322   0.00001  -0.00001   0.00005   0.00004   2.64326
   R84        2.63204   0.00000   0.00002  -0.00001   0.00001   2.63205
   R85        2.04856  -0.00000  -0.00000   0.00001   0.00000   2.04856
   R86        2.63671   0.00000   0.00000   0.00000   0.00001   2.63672
   R87        2.67256   0.00000   0.00001  -0.00003  -0.00002   2.67254
   R88        2.05102  -0.00000  -0.00000   0.00001   0.00000   2.05103
   R89        2.63596  -0.00001  -0.00001  -0.00001  -0.00002   2.63594
   R90        2.04758   0.00001  -0.00001   0.00003   0.00002   2.04760
   R91        2.66671  -0.00002  -0.00003   0.00001  -0.00002   2.66669
   R92        2.04684   0.00000   0.00000   0.00000   0.00000   2.04685
   R93        2.64480   0.00001   0.00001   0.00001   0.00002   2.64482
   R94        2.05184  -0.00000  -0.00000  -0.00000  -0.00000   2.05184
   R95        2.90756   0.00000   0.00001  -0.00001   0.00000   2.90756
   R96        2.91081  -0.00000   0.00001  -0.00002  -0.00001   2.91080
   R97        2.92026   0.00000   0.00000  -0.00001  -0.00001   2.92026
   R98        2.92070  -0.00001   0.00000  -0.00000   0.00000   2.92071
   R99        2.90888   0.00000   0.00001  -0.00001  -0.00001   2.90888
   R100       2.92042  -0.00000   0.00001  -0.00003  -0.00002   2.92041
   R101       2.92092   0.00000  -0.00001   0.00003   0.00003   2.92094
   R102       2.90938   0.00000   0.00002  -0.00003  -0.00001   2.90937
   R103       2.06632   0.00000   0.00000   0.00001   0.00001   2.06633
   R104       2.07001   0.00000   0.00000   0.00000   0.00001   2.07001
   R105       2.06707   0.00000   0.00000   0.00000   0.00000   2.06707
   R106       2.06532  -0.00001   0.00001  -0.00003  -0.00002   2.06530
   R107       2.06804   0.00000   0.00001  -0.00002  -0.00001   2.06804
   R108       2.07023  -0.00000  -0.00001   0.00000  -0.00000   2.07023
   R109       2.06858  -0.00000   0.00001  -0.00002  -0.00001   2.06857
   R110       2.06800   0.00000   0.00000  -0.00000  -0.00000   2.06800
   R111       2.06787  -0.00000   0.00000  -0.00000   0.00000   2.06787
   R112       2.06985   0.00000  -0.00001   0.00001   0.00001   2.06986
   R113       2.06668  -0.00000  -0.00001   0.00001   0.00000   2.06668
   R114       2.06806  -0.00000  -0.00000  -0.00001  -0.00001   2.06805
   R115       2.06637  -0.00000   0.00001  -0.00002  -0.00001   2.06636
   R116       2.07002  -0.00000   0.00000  -0.00001  -0.00001   2.07002
   R117       2.06692   0.00000   0.00000   0.00000   0.00000   2.06692
   R118       2.06854   0.00000   0.00001  -0.00000   0.00001   2.06854
   R119       2.06760   0.00000  -0.00000   0.00000   0.00000   2.06761
   R120       2.06781  -0.00000  -0.00001   0.00000  -0.00000   2.06781
   R121       2.62675   0.00001   0.00005  -0.00006  -0.00000   2.62675
   R122       2.63075   0.00001   0.00001   0.00002   0.00003   2.63077
   R123       2.63334  -0.00001  -0.00006   0.00003  -0.00003   2.63331
   R124       2.67609   0.00000  -0.00002   0.00002   0.00000   2.67609
   R125       2.62983   0.00000   0.00001   0.00001   0.00002   2.62985
   R126       2.66945   0.00001  -0.00000   0.00003   0.00003   2.66948
   R127       2.63273   0.00001   0.00002   0.00001   0.00003   2.63276
   R128       2.04676  -0.00002  -0.00003   0.00001  -0.00003   2.04674
   R129       2.74254   0.00000  -0.00000  -0.00001  -0.00001   2.74253
   R130       2.63022  -0.00000  -0.00001   0.00000  -0.00000   2.63022
   R131       2.63515   0.00000  -0.00000   0.00001   0.00001   2.63516
   R132       2.04702  -0.00001  -0.00000  -0.00001  -0.00002   2.04700
   R133       2.63237  -0.00001  -0.00000  -0.00001  -0.00001   2.63235
   R134       2.66080  -0.00003  -0.00002  -0.00001  -0.00003   2.66076
   R135       2.04661   0.00000   0.00000   0.00000   0.00001   2.04662
   R136       2.64997   0.00000   0.00000  -0.00000  -0.00000   2.64997
   R137       2.05126   0.00000  -0.00000   0.00001   0.00000   2.05126
   R138       2.65949  -0.00001   0.00001  -0.00002  -0.00001   2.65948
   R139       2.04668   0.00000   0.00001  -0.00001  -0.00000   2.04667
   R140       2.64949   0.00000  -0.00001   0.00001   0.00000   2.64949
   R141       2.05148  -0.00000  -0.00000   0.00000  -0.00000   2.05148
   R142       2.90883   0.00001   0.00001   0.00000   0.00001   2.90884
   R143       2.90899   0.00000   0.00001   0.00001   0.00002   2.90901
   R144       2.92050  -0.00000   0.00002  -0.00001   0.00001   2.92051
   R145       2.92150  -0.00000  -0.00002   0.00001  -0.00001   2.92149
   R146       2.90929  -0.00000  -0.00000  -0.00001  -0.00001   2.90929
   R147       2.90927  -0.00000  -0.00001   0.00001   0.00000   2.90927
   R148       2.92094  -0.00000   0.00002  -0.00003  -0.00001   2.92093
   R149       2.92046   0.00000  -0.00001   0.00001   0.00000   2.92046
   R150       2.06959   0.00000  -0.00000   0.00000   0.00000   2.06959
   R151       2.06608   0.00000  -0.00000   0.00001   0.00000   2.06609
   R152       2.06671  -0.00000   0.00000  -0.00001  -0.00001   2.06670
   R153       2.06709  -0.00000   0.00000  -0.00001  -0.00000   2.06708
   R154       2.06663  -0.00000   0.00000  -0.00000  -0.00000   2.06663
   R155       2.07000   0.00000   0.00000  -0.00000   0.00000   2.07000
   R156       2.06880   0.00000   0.00000  -0.00000  -0.00000   2.06880
   R157       2.06775  -0.00000  -0.00000  -0.00000  -0.00001   2.06775
   R158       2.06758  -0.00000   0.00000  -0.00000  -0.00000   2.06758
   R159       2.06786  -0.00000  -0.00000  -0.00001  -0.00001   2.06785
   R160       2.06869   0.00000   0.00000   0.00000   0.00000   2.06869
   R161       2.06768   0.00000   0.00000  -0.00000   0.00000   2.06769
   R162       2.06645  -0.00000  -0.00000  -0.00001  -0.00001   2.06645
   R163       2.06989   0.00000   0.00000   0.00000   0.00000   2.06990
   R164       2.06718  -0.00000   0.00001  -0.00002  -0.00001   2.06717
   R165       2.06642   0.00000  -0.00000   0.00001   0.00001   2.06643
   R166       2.06708   0.00000   0.00000  -0.00000   0.00000   2.06708
   R167       2.06983   0.00000   0.00000  -0.00000   0.00000   2.06983
    A1        2.12185  -0.00000   0.00008  -0.00008   0.00000   2.12185
    A2        2.24950   0.00001  -0.00007   0.00009   0.00002   2.24952
    A3        1.91153  -0.00001  -0.00001  -0.00001  -0.00003   1.91150
    A4        2.12717   0.00002   0.00008  -0.00002   0.00006   2.12723
    A5        2.23967  -0.00002  -0.00013   0.00009  -0.00004   2.23962
    A6        1.91631   0.00000   0.00005  -0.00007  -0.00002   1.91628
    A7        2.05167  -0.00001  -0.00004   0.00001  -0.00003   2.05164
    A8        2.11035   0.00001  -0.00005   0.00012   0.00007   2.11041
    A9        2.12069   0.00000   0.00009  -0.00013  -0.00004   2.12065
   A10        1.85286   0.00000   0.00002  -0.00002  -0.00000   1.85286
   A11        2.08655   0.00001  -0.00006   0.00007   0.00001   2.08656
   A12        2.34345  -0.00001   0.00004  -0.00005  -0.00001   2.34344
   A13        2.04932  -0.00001  -0.00003  -0.00001  -0.00004   2.04928
   A14        2.11449   0.00000   0.00007  -0.00004   0.00003   2.11452
   A15        2.11920   0.00000  -0.00005   0.00006   0.00001   2.11921
   A16        1.84622   0.00000  -0.00006   0.00009   0.00003   1.84624
   A17        2.08551  -0.00001  -0.00006   0.00004  -0.00002   2.08549
   A18        2.35140   0.00000   0.00012  -0.00012  -0.00000   2.35139
   A19        2.13709   0.00001  -0.00001   0.00004   0.00004   2.13712
   A20        2.05200  -0.00000  -0.00001  -0.00008  -0.00008   2.05192
   A21        2.09396  -0.00000   0.00001   0.00003   0.00005   2.09400
   A22        2.09851   0.00000   0.00002  -0.00001   0.00001   2.09852
   A23        2.08945  -0.00001   0.00001  -0.00000   0.00000   2.08945
   A24        2.09513   0.00000  -0.00002   0.00001  -0.00001   2.09512
   A25        2.13658  -0.00001  -0.00004   0.00003  -0.00001   2.13657
   A26        2.05019  -0.00000  -0.00008   0.00003  -0.00005   2.05015
   A27        2.09641   0.00001   0.00012  -0.00007   0.00005   2.09646
   A28        2.09792  -0.00000  -0.00001  -0.00000  -0.00001   2.09791
   A29        2.09052  -0.00000   0.00001  -0.00003  -0.00002   2.09050
   A30        2.09475   0.00001  -0.00000   0.00003   0.00003   2.09477
   A31        2.07067  -0.00000   0.00001  -0.00003  -0.00002   2.07065
   A32        2.13825   0.00000   0.00006   0.00001   0.00007   2.13832
   A33        2.07383   0.00000  -0.00007   0.00003  -0.00005   2.07379
   A34        2.06942   0.00001   0.00005  -0.00005   0.00001   2.06943
   A35        2.13671  -0.00000  -0.00004   0.00004  -0.00000   2.13671
   A36        2.07705  -0.00001  -0.00001   0.00001  -0.00000   2.07705
   A37        2.06023   0.00001   0.00008  -0.00010  -0.00003   2.06020
   A38        2.02926   0.00002  -0.00027   0.00027  -0.00001   2.02925
   A39        2.04359  -0.00003  -0.00018   0.00004  -0.00014   2.04345
   A40        2.12128  -0.00001  -0.00003   0.00009   0.00007   2.12135
   A41        2.03627  -0.00000  -0.00027   0.00016  -0.00010   2.03617
   A42        2.12549   0.00001   0.00029  -0.00026   0.00004   2.12552
   A43        2.08344  -0.00001  -0.00005  -0.00003  -0.00008   2.08336
   A44        2.10445  -0.00000  -0.00000   0.00004   0.00004   2.10449
   A45        2.09511   0.00001   0.00005  -0.00001   0.00004   2.09515
   A46        2.09743   0.00001   0.00004  -0.00003   0.00001   2.09744
   A47        2.07329   0.00002   0.00007  -0.00002   0.00004   2.07333
   A48        2.08614  -0.00003  -0.00023   0.00012  -0.00011   2.08603
   A49        2.09471  -0.00000  -0.00004   0.00005   0.00001   2.09472
   A50        2.09089   0.00000   0.00003  -0.00004  -0.00002   2.09087
   A51        2.09697   0.00000   0.00002  -0.00001   0.00000   2.09697
   A52        2.10694  -0.00000  -0.00004   0.00004  -0.00001   2.10694
   A53        2.04400   0.00002  -0.00006   0.00019   0.00013   2.04413
   A54        2.12888  -0.00002   0.00014  -0.00028  -0.00014   2.12874
   A55        1.91521   0.00001  -0.00010   0.00004  -0.00006   1.91515
   A56        1.89335  -0.00001   0.00003  -0.00005  -0.00003   1.89332
   A57        1.96263   0.00000   0.00009  -0.00001   0.00008   1.96270
   A58        1.91293   0.00000  -0.00001  -0.00001  -0.00002   1.91291
   A59        1.88737  -0.00001   0.00001   0.00002   0.00002   1.88739
   A60        1.89193   0.00001  -0.00002   0.00003   0.00001   1.89194
   A61        1.96171  -0.00000  -0.00001   0.00002   0.00001   1.96172
   A62        1.90403  -0.00001  -0.00012   0.00006  -0.00006   1.90397
   A63        1.90762   0.00001   0.00013  -0.00004   0.00009   1.90771
   A64        1.88722   0.00000   0.00000   0.00002   0.00003   1.88725
   A65        1.88973  -0.00000  -0.00003  -0.00000  -0.00003   1.88970
   A66        1.91309  -0.00000   0.00001  -0.00005  -0.00004   1.91305
   A67        1.89738   0.00000   0.00002   0.00000   0.00002   1.89740
   A68        2.22554   0.00003   0.00041  -0.00035   0.00006   2.22560
   A69        2.15847  -0.00003  -0.00041   0.00032  -0.00009   2.15838
   A70        2.11025  -0.00000  -0.00002   0.00001  -0.00001   2.11024
   A71        2.08347  -0.00002  -0.00004  -0.00000  -0.00004   2.08342
   A72        2.08588   0.00002   0.00006  -0.00001   0.00005   2.08593
   A73        2.08271   0.00001   0.00002  -0.00000   0.00002   2.08273
   A74        2.08472   0.00001  -0.00001   0.00003   0.00003   2.08475
   A75        2.11552  -0.00001  -0.00001  -0.00003  -0.00004   2.11547
   A76        2.08277  -0.00000   0.00001  -0.00001  -0.00001   2.08277
   A77        2.08619  -0.00001  -0.00003  -0.00001  -0.00004   2.08615
   A78        2.11410   0.00001   0.00002   0.00002   0.00005   2.11414
   A79        2.09764  -0.00000  -0.00001  -0.00000  -0.00001   2.09763
   A80        2.08909   0.00000   0.00001  -0.00001   0.00000   2.08909
   A81        2.09636   0.00000  -0.00001   0.00002   0.00001   2.09637
   A82        2.09819   0.00000   0.00000   0.00001   0.00001   2.09820
   A83        2.08915   0.00000  -0.00000   0.00000  -0.00000   2.08915
   A84        2.09580  -0.00000   0.00000  -0.00001  -0.00001   2.09579
   A85        2.09475  -0.00000  -0.00000   0.00000  -0.00000   2.09475
   A86        2.09423   0.00000   0.00001  -0.00000   0.00000   2.09423
   A87        2.09411  -0.00000  -0.00000   0.00000  -0.00000   2.09411
   A88        1.91819  -0.00000  -0.00001   0.00001   0.00000   1.91819
   A89        1.96018   0.00001  -0.00001  -0.00001  -0.00002   1.96016
   A90        1.93736  -0.00000  -0.00002   0.00002   0.00000   1.93736
   A91        1.87443  -0.00000   0.00003  -0.00003   0.00000   1.87443
   A92        1.88787   0.00000   0.00002  -0.00002  -0.00000   1.88787
   A93        1.88323  -0.00000  -0.00001   0.00003   0.00002   1.88325
   A94        1.92181   0.00000  -0.00001   0.00004   0.00003   1.92184
   A95        1.93387  -0.00000   0.00000  -0.00000   0.00000   1.93387
   A96        1.95282  -0.00001   0.00005  -0.00009  -0.00004   1.95278
   A97        1.89037  -0.00000  -0.00001   0.00001  -0.00000   1.89037
   A98        1.88052   0.00000  -0.00004   0.00003  -0.00001   1.88051
   A99        1.88238   0.00001   0.00002   0.00000   0.00002   1.88240
   A100       1.95065   0.00000   0.00002   0.00004   0.00006   1.95070
   A101       1.95386  -0.00001   0.00001  -0.00007  -0.00006   1.95380
   A102       1.91085   0.00000  -0.00001   0.00002   0.00000   1.91085
   A103       1.89450   0.00000   0.00001   0.00000   0.00001   1.89451
   A104       1.87721   0.00000  -0.00002   0.00001  -0.00001   1.87720
   A105       1.87363   0.00000  -0.00000   0.00000  -0.00000   1.87362
   A106       1.95341  -0.00001  -0.00004  -0.00001  -0.00004   1.95337
   A107       1.95128   0.00001  -0.00000   0.00005   0.00005   1.95133
   A108       1.91098   0.00000   0.00001  -0.00002  -0.00000   1.91098
   A109       1.89391  -0.00000  -0.00001   0.00000  -0.00001   1.89390
   A110       1.87449   0.00000   0.00007  -0.00003   0.00004   1.87453
   A111       1.87662  -0.00000  -0.00003  -0.00000  -0.00004   1.87658
   A112       1.95699  -0.00000  -0.00004   0.00001  -0.00002   1.95696
   A113       1.92123   0.00001   0.00002   0.00001   0.00003   1.92125
   A114       1.93336  -0.00000  -0.00005   0.00005  -0.00000   1.93336
   A115       1.87720  -0.00000   0.00004  -0.00005  -0.00000   1.87719
   A116       1.88298   0.00000   0.00003  -0.00004  -0.00001   1.88297
   A117       1.88982  -0.00000   0.00000   0.00001   0.00001   1.88983
   A118       1.92180  -0.00000  -0.00002  -0.00001  -0.00004   1.92177
   A119       1.95606  -0.00000   0.00006  -0.00002   0.00004   1.95610
   A120       1.93439   0.00000   0.00004  -0.00003   0.00000   1.93440
   A121       1.87845   0.00000  -0.00005   0.00003  -0.00002   1.87843
   A122       1.88751   0.00000   0.00001   0.00000   0.00001   1.88752
   A123       1.88330  -0.00000  -0.00004   0.00004   0.00000   1.88330
   A124       1.79808  -0.00004  -0.00014   0.00004  -0.00010   1.79798
   A125       1.90131  -0.00000  -0.00001  -0.00000  -0.00001   1.90130
   A126       1.90222   0.00001   0.00008  -0.00002   0.00007   1.90229
   A127       1.86433   0.00001  -0.00001   0.00004   0.00003   1.86436
   A128       1.85548   0.00002   0.00006   0.00000   0.00007   1.85555
   A129       2.11563  -0.00001  -0.00002  -0.00005  -0.00007   2.11557
   A130       2.18682   0.00003  -0.00006   0.00002  -0.00005   2.18677
   A131       2.13336  -0.00003  -0.00009   0.00003  -0.00006   2.13331
   A132       1.87799  -0.00000  -0.00002   0.00001  -0.00001   1.87798
   A133       2.25687  -0.00001  -0.00001  -0.00005  -0.00006   2.25680
   A134       1.91496  -0.00000  -0.00001   0.00004   0.00003   1.91499
   A135       2.11135   0.00001   0.00002   0.00001   0.00003   2.11138
   A136       2.25089  -0.00001  -0.00003   0.00001  -0.00002   2.25087
   A137       1.91610   0.00001   0.00003  -0.00002   0.00001   1.91612
   A138       2.11610   0.00000   0.00000   0.00001   0.00001   2.11611
   A139       2.05463   0.00000   0.00000  -0.00001  -0.00001   2.05462
   A140       2.11179   0.00001  -0.00001   0.00006   0.00005   2.11184
   A141       2.11677  -0.00001   0.00001  -0.00006  -0.00004   2.11672
   A142       1.85930  -0.00000   0.00002  -0.00006  -0.00004   1.85926
   A143       2.09345  -0.00001  -0.00002  -0.00001  -0.00003   2.09342
   A144       2.33020   0.00001   0.00000   0.00007   0.00008   2.33027
   A145       2.05539   0.00000   0.00000   0.00000   0.00000   2.05540
   A146       2.11110   0.00000   0.00001  -0.00000   0.00001   2.11110
   A147       2.11667  -0.00000  -0.00001   0.00000  -0.00001   2.11666
   A148       1.85610  -0.00000  -0.00002   0.00002   0.00000   1.85610
   A149       2.08691  -0.00000  -0.00000   0.00000  -0.00000   2.08691
   A150       2.33991   0.00001   0.00002  -0.00002   0.00000   2.33992
   A151       2.14607  -0.00001  -0.00002   0.00001  -0.00001   2.14606
   A152       2.05506  -0.00000  -0.00000  -0.00000  -0.00000   2.05505
   A153       2.08205   0.00001   0.00002  -0.00001   0.00002   2.08206
   A154       2.09995  -0.00000   0.00001  -0.00002  -0.00001   2.09993
   A155       2.07400   0.00002   0.00002   0.00007   0.00010   2.07410
   A156       2.10921  -0.00002  -0.00004  -0.00005  -0.00008   2.10912
   A157       2.14176  -0.00000  -0.00001   0.00000  -0.00000   2.14176
   A158       2.05209  -0.00000  -0.00000  -0.00003  -0.00003   2.05205
   A159       2.08929   0.00000   0.00001   0.00003   0.00004   2.08933
   A160       2.10432  -0.00000   0.00000  -0.00001  -0.00001   2.10431
   A161       2.07853   0.00000   0.00001  -0.00001   0.00000   2.07854
   A162       2.10033   0.00000  -0.00002   0.00003   0.00001   2.10034
   A163       2.06061   0.00001   0.00001   0.00002   0.00004   2.06065
   A164       2.08291   0.00001  -0.00000  -0.00004  -0.00004   2.08286
   A165       2.13965  -0.00002  -0.00001   0.00002   0.00000   2.13965
   A166       2.06183   0.00000   0.00000  -0.00000   0.00000   2.06183
   A167       2.13596  -0.00001   0.00001  -0.00002  -0.00001   2.13596
   A168       2.08535   0.00001  -0.00002   0.00003   0.00001   2.08536
   A169       1.91515  -0.00001  -0.00000   0.00002   0.00002   1.91517
   A170       1.90632   0.00001  -0.00001   0.00002   0.00001   1.90633
   A171       1.95976  -0.00001   0.00000  -0.00001  -0.00000   1.95975
   A172       1.91081  -0.00000  -0.00001  -0.00001  -0.00002   1.91079
   A173       1.88571   0.00001   0.00002  -0.00005  -0.00003   1.88568
   A174       1.88543  -0.00001  -0.00001   0.00002   0.00002   1.88544
   A175       1.91234  -0.00000   0.00004  -0.00005  -0.00001   1.91233
   A176       1.90881   0.00000  -0.00004   0.00006   0.00002   1.90882
   A177       1.96316   0.00000   0.00001  -0.00000   0.00000   1.96316
   A178       1.90877   0.00000  -0.00000   0.00003   0.00003   1.90880
   A179       1.88414   0.00000   0.00000  -0.00002  -0.00001   1.88413
   A180       1.88582  -0.00000  -0.00001  -0.00002  -0.00003   1.88579
   A181       1.95266   0.00000  -0.00001   0.00008   0.00006   1.95272
   A182       1.92858  -0.00000   0.00001  -0.00005  -0.00004   1.92854
   A183       1.93268   0.00000   0.00002  -0.00001   0.00001   1.93269
   A184       1.87831  -0.00000  -0.00000  -0.00002  -0.00003   1.87829
   A185       1.88018  -0.00000  -0.00001  -0.00001  -0.00002   1.88017
   A186       1.88909   0.00000  -0.00001   0.00001   0.00001   1.88909
   A187       1.94895  -0.00000  -0.00004  -0.00000  -0.00004   1.94891
   A188       1.93098   0.00001   0.00003  -0.00004  -0.00000   1.93097
   A189       1.93052  -0.00001  -0.00002   0.00003   0.00001   1.93052
   A190       1.88086  -0.00000   0.00001  -0.00002  -0.00001   1.88085
   A191       1.88073   0.00000  -0.00001   0.00005   0.00004   1.88077
   A192       1.88965   0.00000   0.00002  -0.00001   0.00001   1.88966
   A193       1.95088   0.00000  -0.00000   0.00003   0.00003   1.95091
   A194       1.95028  -0.00000  -0.00000  -0.00003  -0.00003   1.95025
   A195       1.91502   0.00000   0.00001  -0.00001   0.00001   1.91502
   A196       1.89160   0.00000   0.00000   0.00000   0.00001   1.89161
   A197       1.87610  -0.00000  -0.00003  -0.00000  -0.00003   1.87607
   A198       1.87699  -0.00000   0.00001   0.00001   0.00002   1.87701
   A199       1.93010   0.00001  -0.00001   0.00005   0.00004   1.93014
   A200       1.95084  -0.00000   0.00001   0.00002   0.00003   1.95087
   A201       1.93117  -0.00001   0.00000  -0.00007  -0.00007   1.93111
   A202       1.87940   0.00000   0.00000   0.00002   0.00002   1.87943
   A203       1.88524   0.00000  -0.00001  -0.00000  -0.00001   1.88523
   A204       1.88478   0.00000  -0.00000  -0.00001  -0.00002   1.88477
   A205       1.95109   0.00001   0.00001   0.00003   0.00004   1.95113
   A206       1.92883  -0.00001  -0.00001  -0.00002  -0.00003   1.92880
   A207       1.93252  -0.00000  -0.00001  -0.00000  -0.00001   1.93251
   A208       1.87974  -0.00000   0.00001  -0.00000   0.00000   1.87975
   A209       1.88015  -0.00000  -0.00000   0.00001   0.00000   1.88015
   A210       1.88926   0.00000   0.00001  -0.00002  -0.00001   1.88925
   A211       1.95245  -0.00000   0.00001  -0.00002  -0.00001   1.95244
   A212       1.95123  -0.00000  -0.00001   0.00003   0.00002   1.95125
   A213       1.91407   0.00000   0.00001  -0.00001  -0.00001   1.91406
   A214       1.89126  -0.00000  -0.00001   0.00000  -0.00001   1.89126
   A215       1.87572   0.00000  -0.00000   0.00002   0.00002   1.87573
   A216       1.87600  -0.00000   0.00000  -0.00002  -0.00002   1.87598
   A217       2.19428   0.00002   0.00019  -0.00015   0.00004   2.19432
   A218       2.18337  -0.00001  -0.00025   0.00027   0.00002   2.18340
   A219       1.88970  -0.00001  -0.00001  -0.00000  -0.00002   1.88968
   A220       2.26451   0.00001   0.00003  -0.00000   0.00003   2.26454
   A221       1.90718   0.00001   0.00000   0.00003   0.00003   1.90721
   A222       2.11147  -0.00002  -0.00003  -0.00002  -0.00006   2.11141
   A223       2.25805  -0.00000   0.00002  -0.00001   0.00001   2.25806
   A224       1.91020   0.00000   0.00001  -0.00001  -0.00001   1.91019
   A225       2.11464  -0.00000  -0.00002   0.00001  -0.00000   2.11464
   A226       2.05713   0.00002   0.00003   0.00002   0.00005   2.05718
   A227       2.11552  -0.00001  -0.00004   0.00001  -0.00003   2.11549
   A228       2.11030  -0.00001   0.00002  -0.00003  -0.00002   2.11028
   A229       1.85965  -0.00001   0.00001  -0.00002  -0.00001   1.85964
   A230       2.08899   0.00001   0.00003  -0.00002   0.00002   2.08901
   A231       2.33454   0.00000  -0.00004   0.00003  -0.00001   2.33454
   A232       2.05602  -0.00000   0.00000  -0.00002  -0.00001   2.05601
   A233       2.11160  -0.00000   0.00003  -0.00001   0.00002   2.11162
   A234       2.11547   0.00000  -0.00003   0.00002  -0.00001   2.11546
   A235       1.85788   0.00000   0.00001   0.00000   0.00001   1.85789
   A236       2.08796  -0.00000   0.00001  -0.00002  -0.00000   2.08796
   A237       2.33733  -0.00000  -0.00002   0.00002  -0.00001   2.33732
   A238       2.14323  -0.00000  -0.00000  -0.00001  -0.00001   2.14322
   A239       2.04970   0.00001   0.00004  -0.00004  -0.00000   2.04970
   A240       2.09020  -0.00001  -0.00004   0.00005   0.00001   2.09021
   A241       2.10521   0.00001  -0.00001   0.00004   0.00003   2.10523
   A242       2.07838   0.00000  -0.00000   0.00001   0.00001   2.07838
   A243       2.09959  -0.00001   0.00001  -0.00004  -0.00003   2.09956
   A244       2.14198   0.00000   0.00001   0.00001   0.00002   2.14200
   A245       2.05052   0.00000   0.00000   0.00002   0.00002   2.05054
   A246       2.09066  -0.00001  -0.00001  -0.00002  -0.00004   2.09063
   A247       2.10454   0.00000   0.00000   0.00001   0.00001   2.10455
   A248       2.07901   0.00001  -0.00001   0.00003   0.00002   2.07903
   A249       2.09964  -0.00001   0.00001  -0.00004  -0.00003   2.09961
   A250       2.06030  -0.00001  -0.00002  -0.00001  -0.00003   2.06027
   A251       2.13804   0.00001   0.00002   0.00007   0.00009   2.13813
   A252       2.08459  -0.00000   0.00000  -0.00005  -0.00005   2.08454
   A253       2.06068   0.00000  -0.00001   0.00000  -0.00001   2.06068
   A254       2.13757   0.00000   0.00000   0.00001   0.00002   2.13759
   A255       2.08492  -0.00000   0.00001  -0.00002  -0.00001   2.08492
   A256       1.91598  -0.00001   0.00002  -0.00014  -0.00013   1.91586
   A257       1.90422   0.00001  -0.00001   0.00012   0.00011   1.90434
   A258       1.96150   0.00000  -0.00000   0.00006   0.00006   1.96156
   A259       1.90847  -0.00000  -0.00002   0.00002  -0.00001   1.90846
   A260       1.88432   0.00000  -0.00001   0.00005   0.00003   1.88435
   A261       1.88861  -0.00001   0.00002  -0.00010  -0.00007   1.88854
   A262       1.96189   0.00000  -0.00001   0.00005   0.00004   1.96193
   A263       1.90692   0.00001  -0.00001   0.00002   0.00001   1.90693
   A264       1.91201  -0.00001   0.00003  -0.00002   0.00001   1.91201
   A265       1.88472  -0.00001  -0.00002   0.00001  -0.00001   1.88471
   A266       1.88658   0.00000   0.00000  -0.00002  -0.00002   1.88656
   A267       1.91108   0.00000   0.00001  -0.00004  -0.00003   1.91104
   A268       1.92631   0.00000  -0.00001   0.00007   0.00006   1.92637
   A269       1.95458  -0.00000   0.00001  -0.00010  -0.00008   1.95450
   A270       1.93521  -0.00000   0.00002  -0.00006  -0.00003   1.93517
   A271       1.87646   0.00000  -0.00001   0.00007   0.00006   1.87652
   A272       1.88828  -0.00000   0.00001  -0.00002  -0.00000   1.88828
   A273       1.88051   0.00000  -0.00003   0.00004   0.00001   1.88052
   A274       1.93354  -0.00000  -0.00000   0.00001   0.00001   1.93354
   A275       1.94801   0.00000  -0.00003   0.00011   0.00007   1.94808
   A276       1.92928  -0.00000   0.00003  -0.00007  -0.00004   1.92924
   A277       1.88028  -0.00000  -0.00001   0.00001   0.00000   1.88029
   A278       1.88937   0.00000   0.00000  -0.00000   0.00000   1.88937
   A279       1.88119  -0.00000   0.00001  -0.00006  -0.00005   1.88114
   A280       1.95040  -0.00000  -0.00001   0.00004   0.00002   1.95042
   A281       1.95278  -0.00000   0.00001  -0.00004  -0.00003   1.95276
   A282       1.91420   0.00000   0.00001  -0.00003  -0.00001   1.91419
   A283       1.89165   0.00000   0.00000   0.00001   0.00002   1.89167
   A284       1.87768  -0.00000  -0.00000  -0.00005  -0.00005   1.87763
   A285       1.87402   0.00000  -0.00002   0.00007   0.00005   1.87407
   A286       1.95214   0.00000   0.00000   0.00000   0.00000   1.95215
   A287       1.95120  -0.00000  -0.00001   0.00003   0.00002   1.95121
   A288       1.91387   0.00000   0.00001  -0.00001   0.00000   1.91387
   A289       1.89175   0.00000   0.00000   0.00000   0.00001   1.89175
   A290       1.87551  -0.00000   0.00002  -0.00002  -0.00000   1.87550
   A291       1.87628   0.00000  -0.00001  -0.00001  -0.00003   1.87625
   A292       1.95184   0.00001  -0.00001   0.00002   0.00001   1.95185
   A293       1.92907   0.00000   0.00001   0.00000   0.00001   1.92908
   A294       1.93071  -0.00000  -0.00002   0.00001  -0.00001   1.93070
   A295       1.87937  -0.00000   0.00001  -0.00003  -0.00002   1.87935
   A296       1.88073  -0.00000  -0.00000  -0.00000  -0.00001   1.88072
   A297       1.88991   0.00000   0.00000   0.00001   0.00001   1.88992
   A298       1.95149  -0.00000   0.00001  -0.00001   0.00000   1.95149
   A299       1.93338   0.00000   0.00001  -0.00001  -0.00000   1.93338
   A300       1.92833  -0.00000  -0.00000  -0.00001  -0.00001   1.92831
   A301       1.88047  -0.00000  -0.00001   0.00001  -0.00000   1.88046
   A302       1.87878   0.00000  -0.00000   0.00000  -0.00000   1.87878
   A303       1.88910   0.00000  -0.00000   0.00002   0.00001   1.88911
    D1        0.00307   0.00001   0.00026  -0.00007   0.00019   0.00326
    D2       -3.10598   0.00001   0.00043  -0.00001   0.00042  -3.10556
    D3        3.11527  -0.00000   0.00003  -0.00017  -0.00014   3.11513
    D4        0.00622  -0.00000   0.00019  -0.00011   0.00009   0.00631
    D5        3.11887  -0.00001  -0.00037  -0.00007  -0.00044   3.11843
    D6        0.00074  -0.00001  -0.00020  -0.00011  -0.00032   0.00042
    D7        0.00155  -0.00000  -0.00018   0.00002  -0.00016   0.00138
    D8       -3.11658  -0.00000  -0.00001  -0.00003  -0.00004  -3.11662
    D9       -3.09844   0.00001   0.00033   0.00021   0.00054  -3.09790
   D10       -0.01991   0.00000   0.00055  -0.00017   0.00038  -0.01953
   D11        0.01659   0.00000   0.00012   0.00011   0.00024   0.01682
   D12        3.09512  -0.00000   0.00034  -0.00026   0.00008   3.09520
   D13       -0.02752  -0.00000   0.00002  -0.00012  -0.00010  -0.02762
   D14        3.09405   0.00000  -0.00048   0.00006  -0.00042   3.09364
   D15        3.12539  -0.00001   0.00059  -0.00071  -0.00012   3.12527
   D16       -0.03622  -0.00000   0.00010  -0.00053  -0.00044  -0.03665
   D17       -3.10304  -0.00000   0.00038  -0.00029   0.00009  -3.10294
   D18        0.02851   0.00000   0.00010   0.00004   0.00013   0.02864
   D19        0.02912  -0.00000  -0.00010   0.00021   0.00011   0.02923
   D20       -3.12253   0.00000  -0.00038   0.00053   0.00015  -3.12238
   D21        3.10241   0.00000  -0.00053   0.00033  -0.00020   3.10222
   D22        0.02092   0.00001  -0.00078   0.00072  -0.00006   0.02087
   D23       -0.02896  -0.00000  -0.00001  -0.00020  -0.00022  -0.02918
   D24       -3.11045   0.00000  -0.00026   0.00018  -0.00008  -3.11053
   D25       -0.00681   0.00000  -0.00010   0.00016   0.00007  -0.00674
   D26       -3.13020  -0.00000   0.00001   0.00004   0.00005  -3.13015
   D27        3.10203   0.00000  -0.00026   0.00010  -0.00016   3.10187
   D28       -0.02136  -0.00000  -0.00016  -0.00002  -0.00018  -0.02154
   D29       -0.01843   0.00000   0.00017  -0.00014   0.00003  -0.01840
   D30        3.13547  -0.00000   0.00051  -0.00053  -0.00002   3.13546
   D31        3.09465   0.00000  -0.00004  -0.00008  -0.00012   3.09454
   D32       -0.03462  -0.00001   0.00031  -0.00047  -0.00017  -0.03479
   D33       -0.00102   0.00000  -0.00002   0.00020   0.00018  -0.00085
   D34        3.12593   0.00000  -0.00001   0.00020   0.00019   3.12612
   D35       -3.11114   0.00000   0.00020   0.00014   0.00034  -3.11080
   D36        0.01582   0.00000   0.00022   0.00013   0.00035   0.01617
   D37        0.00471  -0.00000  -0.00009   0.00002  -0.00008   0.00463
   D38       -3.13475  -0.00000  -0.00034   0.00008  -0.00026  -3.13501
   D39       -3.11681  -0.00000   0.00040  -0.00016   0.00024  -3.11657
   D40        0.02692  -0.00000   0.00016  -0.00010   0.00006   0.02698
   D41       -0.00592   0.00000  -0.00015   0.00015   0.00000  -0.00591
   D42        3.13674   0.00000   0.00003   0.00005   0.00007   3.13681
   D43        3.12206   0.00001  -0.00053   0.00059   0.00006   3.12212
   D44       -0.01847   0.00001  -0.00036   0.00048   0.00013  -0.01834
   D45        0.00659  -0.00001  -0.00012  -0.00007  -0.00020   0.00640
   D46       -3.10316  -0.00000  -0.00013  -0.00008  -0.00021  -3.10337
   D47        3.12956  -0.00000  -0.00023   0.00005  -0.00018   3.12938
   D48        0.01980  -0.00000  -0.00023   0.00004  -0.00019   0.01961
   D49       -0.00250   0.00000   0.00018  -0.00011   0.00007  -0.00243
   D50        3.10845   0.00000   0.00019  -0.00011   0.00009   3.10854
   D51       -3.12941   0.00000   0.00017  -0.00011   0.00006  -3.12935
   D52       -0.01846   0.00000   0.00017  -0.00010   0.00007  -0.01838
   D53        0.01665   0.00001   0.00004   0.00016   0.00021   0.01686
   D54       -3.12650   0.00001   0.00009  -0.00007   0.00002  -3.12648
   D55       -3.12714   0.00001   0.00030   0.00010   0.00040  -3.12674
   D56        0.01290   0.00001   0.00034  -0.00013   0.00020   0.01310
   D57       -0.01583  -0.00001   0.00008  -0.00025  -0.00017  -0.01600
   D58        3.12726  -0.00001   0.00004  -0.00002   0.00002   3.12728
   D59        3.12470  -0.00000  -0.00009  -0.00014  -0.00024   3.12446
   D60       -0.01540  -0.00001  -0.00013   0.00008  -0.00005  -0.01545
   D61       -2.19711   0.00000   0.00024   0.00080   0.00105  -2.19607
   D62        1.99663   0.00000   0.00029   0.00083   0.00112   1.99775
   D63       -0.09569   0.00000   0.00024   0.00084   0.00108  -0.09460
   D64        0.97637   0.00001   0.00024   0.00079   0.00103   0.97740
   D65       -1.11307   0.00001   0.00029   0.00082   0.00111  -1.11197
   D66        3.07780   0.00001   0.00024   0.00083   0.00107   3.07887
   D67        0.02382  -0.00000  -0.00098   0.00155   0.00057   0.02440
   D68        2.11685   0.00000  -0.00106   0.00162   0.00057   2.11742
   D69       -2.07478  -0.00000  -0.00103   0.00157   0.00054  -2.07424
   D70       -3.11933   0.00000  -0.00094   0.00131   0.00038  -3.11895
   D71       -1.02631   0.00000  -0.00101   0.00139   0.00038  -1.02593
   D72        1.06525   0.00000  -0.00099   0.00134   0.00035   1.06560
   D73       -0.00581  -0.00001  -0.00097   0.00076  -0.00021  -0.00602
   D74       -3.12918  -0.00001  -0.00114   0.00108  -0.00007  -3.12924
   D75        2.55905  -0.00002  -0.00168   0.00112  -0.00055   2.55850
   D76       -0.56432  -0.00002  -0.00185   0.00144  -0.00041  -0.56472
   D77        0.02782   0.00001   0.00091  -0.00062   0.00028   0.02811
   D78       -3.02745   0.00002   0.00049  -0.00004   0.00045  -3.02701
   D79       -2.53233   0.00001   0.00165  -0.00106   0.00058  -2.53174
   D80        0.69559   0.00002   0.00123  -0.00048   0.00074   0.69633
   D81        2.06393   0.00002  -0.00063   0.00065   0.00002   2.06395
   D82       -1.14945   0.00002  -0.00035   0.00021  -0.00015  -1.14960
   D83       -1.64879   0.00002  -0.00124   0.00096  -0.00028  -1.64906
   D84        1.42102   0.00002  -0.00096   0.00052  -0.00045   1.42057
   D85       -0.04584   0.00000   0.00028  -0.00036  -0.00008  -0.04592
   D86        3.07524   0.00000   0.00012  -0.00014  -0.00002   3.07521
   D87        3.07660  -0.00000   0.00045  -0.00069  -0.00023   3.07636
   D88       -0.08551   0.00000   0.00029  -0.00047  -0.00018  -0.08569
   D89        1.94177  -0.00001  -0.00099   0.00120   0.00021   1.94198
   D90       -0.98693  -0.00002  -0.00050   0.00041  -0.00009  -0.98702
   D91       -1.18156  -0.00001  -0.00116   0.00152   0.00036  -1.18119
   D92        2.17293  -0.00002  -0.00067   0.00073   0.00006   2.17299
   D93        0.07712   0.00001   0.00051  -0.00020   0.00031   0.07743
   D94       -2.81887   0.00001   0.00109  -0.00053   0.00056  -2.81831
   D95       -3.04407   0.00001   0.00067  -0.00042   0.00026  -3.04381
   D96        0.34313   0.00001   0.00125  -0.00075   0.00051   0.34364
   D97       -0.05577  -0.00001  -0.00057   0.00032  -0.00025  -0.05601
   D98        3.04793  -0.00001  -0.00055   0.00026  -0.00029   3.04764
   D99        2.83842  -0.00000  -0.00112   0.00064  -0.00048   2.83794
   D100      -0.34107  -0.00000  -0.00110   0.00057  -0.00052  -0.34159
   D101       1.37571   0.00000   0.00015   0.00005   0.00020   1.37592
   D102      -2.93244   0.00000   0.00007   0.00012   0.00019  -2.93225
   D103      -0.58969  -0.00000   0.00011   0.00004   0.00015  -0.58954
   D104      -1.52190   0.00000   0.00069  -0.00025   0.00044  -1.52146
   D105       0.45313   0.00000   0.00061  -0.00019   0.00042   0.45356
   D106       2.79588  -0.00000   0.00065  -0.00027   0.00038   2.79627
   D107       0.00312  -0.00000  -0.00015   0.00009  -0.00006   0.00306
   D108       3.05412  -0.00001   0.00028  -0.00049  -0.00021   3.05391
   D109      -3.10044  -0.00000  -0.00017   0.00016  -0.00001  -3.10046
   D110      -0.04944  -0.00001   0.00026  -0.00043  -0.00017  -0.04961
   D111      -1.39644  -0.00001  -0.00103   0.00060  -0.00043  -1.39687
   D112       1.25947  -0.00002  -0.00151   0.00075  -0.00076   1.25872
   D113       1.83264  -0.00000  -0.00145   0.00117  -0.00028   1.83237
   D114      -1.79463  -0.00001  -0.00192   0.00132  -0.00060  -1.79524
   D115       3.13498   0.00000   0.00005   0.00022   0.00026   3.13524
   D116      -1.06269   0.00000   0.00007   0.00018   0.00025  -1.06244
   D117       1.04727   0.00000   0.00004   0.00023   0.00026   1.04754
   D118      -1.07077  -0.00000   0.00002   0.00016   0.00018  -1.07059
   D119       1.01474  -0.00000   0.00004   0.00013   0.00017   1.01492
   D120       3.12471  -0.00000   0.00001   0.00017   0.00018   3.12489
   D121       0.98848  -0.00000  -0.00001   0.00020   0.00019   0.98866
   D122       3.07398  -0.00000   0.00002   0.00017   0.00018   3.07417
   D123      -1.09924   0.00000  -0.00002   0.00021   0.00019  -1.09904
   D124      -3.13095   0.00000  -0.00009   0.00019   0.00010  -3.13085
   D125      -1.04001   0.00000  -0.00011   0.00023   0.00012  -1.03989
   D126       1.06139   0.00000  -0.00006   0.00018   0.00012   1.06151
   D127       1.06136  -0.00000   0.00001   0.00019   0.00020   1.06156
   D128      -3.13088  -0.00000  -0.00001   0.00023   0.00022  -3.13066
   D129      -1.02948  -0.00000   0.00004   0.00018   0.00022  -1.02926
   D130      -0.99504   0.00000   0.00002   0.00016   0.00018  -0.99485
   D131       1.09590   0.00000   0.00000   0.00020   0.00020   1.09611
   D132      -3.08588   0.00000   0.00005   0.00015   0.00020  -3.08568
   D133      -1.03996  -0.00000  -0.00009   0.00019   0.00009  -1.03986
   D134       1.08961  -0.00000  -0.00007   0.00017   0.00010   1.08971
   D135      -3.11799  -0.00000  -0.00007   0.00014   0.00006  -3.11793
   D136       1.07746   0.00001  -0.00015   0.00024   0.00008   1.07754
   D137      -3.07617   0.00000  -0.00012   0.00022   0.00009  -3.07608
   D138      -1.00058   0.00000  -0.00013   0.00018   0.00005  -1.00053
   D139      -3.13309   0.00001  -0.00017   0.00024   0.00007  -3.13302
   D140      -1.00353   0.00000  -0.00014   0.00022   0.00008  -1.00345
   D141       1.07206   0.00000  -0.00015   0.00019   0.00004   1.07210
   D142      -1.07402  -0.00000   0.00041  -0.00050  -0.00009  -1.07411
   D143       1.05491  -0.00000   0.00037  -0.00047  -0.00010   1.05481
   D144       3.13270  -0.00001   0.00034  -0.00045  -0.00011   3.13259
   D145       3.10641   0.00000   0.00056  -0.00060  -0.00004   3.10637
   D146      -1.04784   0.00000   0.00052  -0.00056  -0.00005  -1.04789
   D147       1.02995  -0.00000   0.00048  -0.00054  -0.00006   1.02989
   D148       1.03490   0.00000   0.00056  -0.00055   0.00001   1.03491
   D149      -3.11936   0.00000   0.00052  -0.00052   0.00000  -3.11936
   D150      -1.04157   0.00000   0.00048  -0.00050  -0.00001  -1.04158
   D151       1.06543   0.00000  -0.00031   0.00070   0.00039   1.06582
   D152      -3.12878   0.00000  -0.00026   0.00065   0.00039  -3.12839
   D153      -1.03922   0.00000  -0.00028   0.00070   0.00042  -1.03880
   D154      -3.07935   0.00000  -0.00038   0.00077   0.00039  -3.07897
   D155      -0.99037   0.00000  -0.00034   0.00072   0.00038  -0.98999
   D156       1.09919   0.00000  -0.00036   0.00077   0.00041   1.09960
   D157      -1.02275  -0.00000  -0.00041   0.00075   0.00034  -1.02241
   D158       1.06623  -0.00000  -0.00037   0.00070   0.00034   1.06657
   D159      -3.12740  -0.00000  -0.00039   0.00075   0.00037  -3.12703
   D160      -3.13354   0.00000  -0.00007   0.00015   0.00008  -3.13347
   D161      -1.04320   0.00000  -0.00011   0.00016   0.00005  -1.04315
   D162       1.06194   0.00000  -0.00009   0.00017   0.00008   1.06202
   D163       1.00747  -0.00000  -0.00013   0.00016   0.00003   1.00750
   D164       3.09781  -0.00000  -0.00017   0.00017   0.00000   3.09781
   D165      -1.08024  -0.00000  -0.00015   0.00018   0.00004  -1.08020
   D166      -1.04757  -0.00000  -0.00012   0.00016   0.00004  -1.04753
   D167       1.04277  -0.00000  -0.00016   0.00018   0.00001   1.04279
   D168      -3.13528  -0.00000  -0.00014   0.00019   0.00005  -3.13523
   D169      -0.00761  -0.00001  -0.00012  -0.00004  -0.00016  -0.00777
   D170       3.11085  -0.00001   0.00001  -0.00020  -0.00019   3.11066
   D171       3.04255  -0.00001  -0.00011  -0.00001  -0.00012   3.04243
   D172      -0.12217  -0.00001   0.00001  -0.00017  -0.00015  -0.12232
   D173       0.00622   0.00000   0.00012   0.00001   0.00012   0.00634
   D174      -3.11876  -0.00000   0.00004   0.00002   0.00006  -3.11870
   D175      -3.04382   0.00001   0.00011  -0.00003   0.00009  -3.04373
   D176       0.11439   0.00000   0.00004  -0.00002   0.00002   0.11441
   D177      -1.55164  -0.00000  -0.00100   0.00134   0.00033  -1.55131
   D178       2.72963   0.00001  -0.00093   0.00131   0.00038   2.73001
   D179       0.44783   0.00000  -0.00094   0.00134   0.00039   0.44822
   D180       1.49981  -0.00000  -0.00100   0.00137   0.00037   1.50018
   D181      -0.50210   0.00001  -0.00093   0.00134   0.00041  -0.50169
   D182      -2.78390  -0.00000  -0.00094   0.00137   0.00043  -2.78347
   D183       0.00037   0.00000   0.00005   0.00004   0.00009   0.00046
   D184       3.12765   0.00000   0.00008  -0.00010  -0.00002   3.12764
   D185      -3.11768   0.00000  -0.00008   0.00021   0.00012  -3.11756
   D186       0.00960   0.00000  -0.00005   0.00007   0.00002   0.00962
   D187       0.00243  -0.00000  -0.00004   0.00002  -0.00001   0.00242
   D188      -3.12932  -0.00000  -0.00000  -0.00002  -0.00003  -3.12935
   D189       3.12713   0.00001   0.00004   0.00001   0.00005   3.12719
   D190      -0.00462   0.00000   0.00007  -0.00003   0.00004  -0.00458
   D191       0.00818   0.00000   0.00003  -0.00001   0.00002   0.00820
   D192       3.13462  -0.00000  -0.00008   0.00005  -0.00003   3.13458
   D193      -3.11905   0.00000  -0.00000   0.00013   0.00012  -3.11892
   D194       0.00739   0.00000  -0.00011   0.00018   0.00007   0.00747
   D195      -0.00960  -0.00000  -0.00004  -0.00002  -0.00006  -0.00965
   D196      -3.13604  -0.00000   0.00007  -0.00008  -0.00000  -3.13604
   D197       3.12212  -0.00000  -0.00007   0.00003  -0.00004   3.12208
   D198      -0.00432   0.00000   0.00004  -0.00003   0.00001  -0.00431
   D199      -0.41117  -0.00001  -0.00017   0.00000  -0.00016  -0.41133
   D200       2.73674  -0.00001  -0.00039   0.00036  -0.00003   2.73671
   D201      -3.12562   0.00000   0.00026  -0.00013   0.00013  -3.12549
   D202       0.02229   0.00000   0.00004   0.00022   0.00026   0.02255
   D203       0.37172  -0.00000   0.00051  -0.00039   0.00013   0.37184
   D204      -2.75510  -0.00000   0.00038  -0.00032   0.00005  -2.75505
   D205       3.10210   0.00000   0.00010  -0.00026  -0.00016   3.10195
   D206      -0.02472  -0.00000  -0.00003  -0.00019  -0.00023  -0.02495
   D207       3.12303   0.00001  -0.00004   0.00040   0.00037   3.12340
   D208      -0.01805   0.00001   0.00058  -0.00015   0.00043  -0.01762
   D209      -0.02550   0.00001   0.00021   0.00001   0.00022  -0.02528
   D210       3.11661   0.00001   0.00082  -0.00054   0.00028   3.11689
   D211      -0.01139  -0.00000  -0.00004  -0.00016  -0.00020  -0.01159
   D212      -3.13265  -0.00001  -0.00005  -0.00034  -0.00040  -3.13305
   D213       3.13590  -0.00000  -0.00023   0.00016  -0.00007   3.13583
   D214       0.01464  -0.00001  -0.00025  -0.00002  -0.00027   0.01437
   D215      -3.12802  -0.00000  -0.00001  -0.00021  -0.00023  -3.12825
   D216       0.02059  -0.00001  -0.00014  -0.00011  -0.00025   0.02034
   D217      -0.00269  -0.00000   0.00014  -0.00028  -0.00015  -0.00284
   D218      -3.13726  -0.00001   0.00001  -0.00018  -0.00017  -3.13743
   D219       0.01754  -0.00000   0.00001   0.00009   0.00011   0.01765
   D220       3.13808   0.00000   0.00003   0.00021   0.00024   3.13832
   D221      -3.11061  -0.00000  -0.00011   0.00015   0.00004  -3.11057
   D222       0.00992   0.00000  -0.00009   0.00027   0.00018   0.01010
   D223       0.01560   0.00000  -0.00003   0.00007   0.00004   0.01564
   D224      -3.13006   0.00000   0.00012  -0.00004   0.00008  -3.12998
   D225      -3.12651  -0.00000  -0.00065   0.00063  -0.00002  -3.12653
   D226       0.01102  -0.00000  -0.00050   0.00051   0.00001   0.01103
   D227      -0.00369   0.00000   0.00001   0.00004   0.00005  -0.00363
   D228      -3.11979  -0.00000  -0.00001  -0.00010  -0.00011  -3.11990
   D229       3.11361   0.00001   0.00003   0.00026   0.00029   3.11390
   D230      -0.00249   0.00000   0.00001   0.00011   0.00012  -0.00237
   D231       0.00730   0.00000   0.00012  -0.00005   0.00006   0.00737
   D232       3.14030   0.00001  -0.00001   0.00044   0.00043   3.14073
   D233      -3.10741  -0.00000   0.00010  -0.00029  -0.00020  -3.10761
   D234       0.02559   0.00000  -0.00003   0.00020   0.00017   0.02576
   D235      -0.00502   0.00000  -0.00006   0.00003  -0.00002  -0.00504
   D236      -3.13595  -0.00000  -0.00011   0.00000  -0.00011  -3.13606
   D237       3.12953   0.00000   0.00007  -0.00007  -0.00000   3.12953
   D238      -0.00141   0.00000   0.00002  -0.00010  -0.00008  -0.00149
   D239      -0.00955  -0.00000  -0.00004  -0.00000  -0.00004  -0.00959
   D240       3.13486  -0.00000   0.00007  -0.00015  -0.00009   3.13478
   D241       3.10392   0.00000  -0.00001   0.00016   0.00015   3.10407
   D242      -0.03485   0.00001   0.00009   0.00001   0.00010  -0.03476
   D243       0.00546  -0.00000  -0.00009  -0.00015  -0.00024   0.00522
   D244      -3.12919  -0.00001   0.00005  -0.00033  -0.00028  -3.12947
   D245      -3.13201  -0.00001  -0.00025  -0.00003  -0.00028  -3.13228
   D246       0.01653  -0.00001  -0.00010  -0.00021  -0.00031   0.01621
   D247      -0.01693   0.00000   0.00005   0.00013   0.00018  -0.01674
   D248       3.11748   0.00001  -0.00010   0.00032   0.00022   3.11770
   D249       3.13343  -0.00000   0.00018  -0.00037  -0.00019   3.13325
   D250      -0.01534   0.00000   0.00003  -0.00018  -0.00015  -0.01549
   D251       0.00533  -0.00000  -0.00007   0.00023   0.00016   0.00549
   D252      -3.12703   0.00000   0.00005  -0.00004   0.00000  -3.12703
   D253       3.13605   0.00000  -0.00002   0.00026   0.00024   3.13629
   D254       0.00368   0.00001   0.00010  -0.00001   0.00009   0.00377
   D255       0.00215   0.00000   0.00012  -0.00024  -0.00012   0.00202
   D256       3.13479  -0.00000   0.00000   0.00002   0.00003   3.13482
   D257       3.14089   0.00000   0.00001  -0.00008  -0.00007   3.14081
   D258      -0.00966  -0.00000  -0.00010   0.00018   0.00008  -0.00958
   D259      -1.02847   0.00000   0.00012   0.00017   0.00029  -1.02817
   D260       1.06626   0.00000   0.00010   0.00019   0.00029   1.06655
   D261      -3.12586   0.00000   0.00009   0.00022   0.00032  -3.12554
   D262       2.12040   0.00000   0.00027  -0.00001   0.00026   2.12065
   D263      -2.06806   0.00000   0.00025  -0.00000   0.00025  -2.06781
   D264       0.02300  -0.00000   0.00024   0.00004   0.00028   0.02328
   D265      -2.09982   0.00000  -0.00067   0.00136   0.00069  -2.09913
   D266       2.09132   0.00000  -0.00067   0.00132   0.00065   2.09197
   D267      -0.00410   0.00001  -0.00063   0.00130   0.00067  -0.00343
   D268       1.05112   0.00000  -0.00055   0.00108   0.00053   1.05165
   D269      -1.04093   0.00000  -0.00055   0.00104   0.00049  -1.04044
   D270      -3.13635   0.00001  -0.00051   0.00103   0.00051  -3.13584
   D271       1.05381   0.00001  -0.00007   0.00036   0.00029   1.05410
   D272      -3.13685   0.00001  -0.00007   0.00034   0.00027  -3.13658
   D273      -1.04387   0.00001  -0.00006   0.00032   0.00026  -1.04362
   D274      -1.03817  -0.00000  -0.00005   0.00032   0.00027  -1.03790
   D275       1.05435  -0.00001  -0.00006   0.00031   0.00025   1.05460
   D276      -3.13586  -0.00000  -0.00005   0.00029   0.00024  -3.13562
   D277      -3.08750   0.00000  -0.00005   0.00033   0.00028  -3.08722
   D278      -0.99497   0.00000  -0.00006   0.00032   0.00026  -0.99471
   D279       1.09800   0.00000  -0.00005   0.00030   0.00025   1.09825
   D280      -1.05124  -0.00000  -0.00013   0.00030   0.00018  -1.05106
   D281       1.04367  -0.00000  -0.00012   0.00025   0.00013   1.04380
   D282       3.13751   0.00000  -0.00008   0.00023   0.00015   3.13766
   D283       1.04615  -0.00000  -0.00014   0.00034   0.00020   1.04635
   D284       3.14106  -0.00000  -0.00013   0.00028   0.00015   3.14122
   D285      -1.04829  -0.00000  -0.00009   0.00026   0.00017  -1.04811
   D286       3.09565   0.00000  -0.00012   0.00029   0.00016   3.09581
   D287      -1.09262   0.00000  -0.00011   0.00023   0.00012  -1.09251
   D288       1.00121   0.00000  -0.00008   0.00021   0.00013   1.00134
   D289      -1.06482  -0.00001  -0.00039  -0.00031  -0.00070  -1.06552
   D290       1.05857  -0.00001  -0.00039  -0.00030  -0.00069   1.05788
   D291       3.13883  -0.00001  -0.00037  -0.00032  -0.00068   3.13815
   D292       3.10397  -0.00000  -0.00040  -0.00030  -0.00070   3.10327
   D293      -1.05582  -0.00000  -0.00040  -0.00030  -0.00069  -1.05651
   D294       1.02444  -0.00000  -0.00038  -0.00031  -0.00069   1.02375
   D295       1.03836   0.00000  -0.00040  -0.00027  -0.00067   1.03769
   D296      -3.12143   0.00000  -0.00039  -0.00027  -0.00066  -3.12210
   D297      -1.04117   0.00000  -0.00038  -0.00028  -0.00066  -1.04183
   D298      -3.12408  -0.00000  -0.00013   0.00034   0.00021  -3.12387
   D299      -1.03035   0.00000  -0.00012   0.00041   0.00029  -1.03007
   D300       1.07092  -0.00000  -0.00012   0.00036   0.00024   1.07116
   D301      -1.03202  -0.00000  -0.00016   0.00040   0.00024  -1.03177
   D302       1.06171   0.00000  -0.00015   0.00047   0.00032   1.06203
   D303      -3.12020  -0.00000  -0.00014   0.00042   0.00027  -3.11993
   D304       1.01577  -0.00000  -0.00017   0.00039   0.00022   1.01599
   D305       3.10950   0.00000  -0.00016   0.00046   0.00029   3.10979
   D306      -1.07242  -0.00000  -0.00016   0.00041   0.00025  -1.07217
   D307       1.05858   0.00000  -0.00011   0.00006  -0.00005   1.05853
   D308      -3.13115   0.00000  -0.00011   0.00007  -0.00004  -3.13119
   D309      -1.03790  -0.00000  -0.00011   0.00004  -0.00007  -1.03797
   D310      -1.03566   0.00000  -0.00014   0.00007  -0.00007  -1.03572
   D311       1.05780   0.00000  -0.00013   0.00008  -0.00005   1.05775
   D312      -3.13213  -0.00000  -0.00013   0.00005  -0.00009  -3.13222
   D313      -3.08239  -0.00000  -0.00014   0.00008  -0.00005  -3.08244
   D314      -0.98893  -0.00000  -0.00013   0.00009  -0.00004  -0.98897
   D315       1.10432  -0.00000  -0.00013   0.00006  -0.00007   1.10425
   D316      -1.05991   0.00000   0.00024   0.00047   0.00071  -1.05920
   D317       1.06485   0.00000   0.00024   0.00048   0.00072   1.06557
   D318      -3.13933   0.00000   0.00024   0.00046   0.00070  -3.13863
   D319       1.05205   0.00000   0.00030   0.00039   0.00070   1.05274
   D320      -3.10638   0.00000   0.00029   0.00040   0.00070  -3.10568
   D321      -1.02737   0.00000   0.00030   0.00038   0.00068  -1.02669
   D322       3.11460   0.00001   0.00030   0.00041   0.00071   3.11531
   D323      -1.04382   0.00000   0.00029   0.00042   0.00071  -1.04311
   D324       1.03518   0.00000   0.00029   0.00040   0.00070   1.03588
   D325       0.19174  -0.00001   0.00017  -0.00042  -0.00025   0.19150
   D326      -2.94247  -0.00001   0.00022  -0.00054  -0.00032  -2.94279
   D327      -3.13292   0.00000  -0.00028   0.00029   0.00002  -3.13290
   D328       0.01605  -0.00000  -0.00023   0.00018  -0.00005   0.01599
   D329      -0.22551   0.00001   0.00015   0.00010   0.00025  -0.22525
   D330       2.94233   0.00001  -0.00018   0.00057   0.00039   2.94272
   D331       3.09773  -0.00000   0.00054  -0.00055  -0.00001   3.09772
   D332      -0.01762  -0.00000   0.00020  -0.00008   0.00012  -0.01750
   D333      -3.12370  -0.00000   0.00016  -0.00019  -0.00003  -3.12372
   D334       0.04124  -0.00000  -0.00016   0.00011  -0.00006   0.04118
   D335       0.00977  -0.00000   0.00011  -0.00006   0.00005   0.00983
   D336      -3.10848   0.00000  -0.00021   0.00024   0.00002  -3.10845
   D337      -0.00835   0.00000   0.00017  -0.00020  -0.00003  -0.00838
   D338       3.13117   0.00000  -0.00007   0.00005  -0.00002   3.13115
   D339       3.13986  -0.00000   0.00021  -0.00031  -0.00010   3.13976
   D340      -0.00381  -0.00000  -0.00003  -0.00006  -0.00009  -0.00390
   D341       3.13894   0.00000  -0.00018   0.00038   0.00020   3.13913
   D342      -0.01717   0.00000  -0.00002   0.00001  -0.00001  -0.01719
   D343      -0.03157   0.00000   0.00019  -0.00014   0.00005  -0.03153
   D344       3.09550  -0.00000   0.00035  -0.00051  -0.00016   3.09534
   D345       0.01222   0.00000  -0.00010  -0.00004  -0.00014   0.01208
   D346      -3.13446  -0.00000   0.00010  -0.00032  -0.00022  -3.13468
   D347      -3.10566   0.00000  -0.00041   0.00038  -0.00002  -3.10568
   D348       0.03084  -0.00000  -0.00020   0.00010  -0.00010   0.03074
   D349      -0.00822   0.00000  -0.00010   0.00013   0.00003  -0.00818
   D350      -3.13877   0.00000  -0.00008   0.00008  -0.00000  -3.13877
   D351       3.11011  -0.00000   0.00022  -0.00016   0.00006   3.11017
   D352      -0.02045  -0.00000   0.00024  -0.00021   0.00003  -0.02042
   D353      -0.00235  -0.00000  -0.00004   0.00015   0.00011  -0.00224
   D354      -3.13779   0.00000  -0.00028   0.00048   0.00020  -3.13759
   D355      -3.14144  -0.00000   0.00025  -0.00015   0.00009  -3.14135
   D356       0.00630   0.00000   0.00000   0.00018   0.00019   0.00648
   D357      -0.00420   0.00000  -0.00006   0.00010   0.00004  -0.00416
   D358       3.13362  -0.00000  -0.00007   0.00022   0.00015   3.13378
   D359       3.13464   0.00000  -0.00038   0.00043   0.00005   3.13469
   D360      -0.01072   0.00000  -0.00039   0.00055   0.00017  -0.01055
   D361       0.00822  -0.00000  -0.00008   0.00011   0.00003   0.00825
   D362      -3.13960  -0.00000  -0.00001  -0.00005  -0.00006  -3.13966
   D363      -3.11883   0.00000  -0.00024   0.00049   0.00024  -3.11858
   D364       0.01654   0.00000  -0.00017   0.00032   0.00015   0.01670
   D365      -0.00576   0.00000   0.00010  -0.00003   0.00007  -0.00569
   D366       3.13713   0.00000  -0.00000   0.00012   0.00012   3.13725
   D367       3.12905  -0.00001   0.00037  -0.00041  -0.00003   3.12902
   D368      -0.01124  -0.00000   0.00027  -0.00025   0.00001  -0.01123
   D369       0.00054  -0.00000   0.00001  -0.00009  -0.00008   0.00046
   D370      -3.11687  -0.00000  -0.00001  -0.00034  -0.00035  -3.11721
   D371       3.13085  -0.00000  -0.00001  -0.00004  -0.00005   3.13080
   D372       0.01344  -0.00000  -0.00003  -0.00028  -0.00031   0.01313
   D373       0.00577  -0.00000   0.00008  -0.00003   0.00005   0.00581
   D374       3.12394  -0.00000   0.00009   0.00021   0.00030   3.12424
   D375      -3.13201   0.00000   0.00008  -0.00015  -0.00007  -3.13208
   D376      -0.01384   0.00000   0.00010   0.00009   0.00018  -0.01366
   D377       0.01572  -0.00000  -0.00002  -0.00004  -0.00006   0.01566
   D378      -3.12907  -0.00000   0.00009  -0.00013  -0.00004  -3.12911
   D379      -3.11952   0.00000  -0.00009   0.00012   0.00003  -3.11948
   D380       0.01888  -0.00000   0.00001   0.00004   0.00005   0.01894
   D381      -0.01671  -0.00000   0.00001   0.00000   0.00001  -0.01670
   D382       3.12798   0.00000  -0.00009   0.00008  -0.00001   3.12797
   D383       3.12357  -0.00000   0.00011  -0.00015  -0.00004   3.12353
   D384      -0.01493  -0.00000   0.00001  -0.00007  -0.00006  -0.01499
   D385      -2.17515   0.00000  -0.00057   0.00123   0.00066  -2.17449
   D386       2.01696   0.00000  -0.00055   0.00122   0.00067   2.01764
   D387      -0.07780   0.00000  -0.00058   0.00123   0.00065  -0.07714
   D388       0.99095  -0.00000  -0.00059   0.00098   0.00039   0.99134
   D389      -1.10012  -0.00000  -0.00057   0.00097   0.00040  -1.09971
   D390       3.08831   0.00000  -0.00059   0.00098   0.00038   3.08869
   D391       0.00706  -0.00000  -0.00065   0.00017  -0.00048   0.00657
   D392       2.09900  -0.00000  -0.00069   0.00023  -0.00046   2.09854
   D393      -2.09068  -0.00000  -0.00067   0.00018  -0.00049  -2.09117
   D394      -3.13777  -0.00000  -0.00055   0.00008  -0.00046  -3.13823
   D395      -1.04583  -0.00001  -0.00058   0.00014  -0.00044  -1.04627
   D396       1.04767  -0.00001  -0.00056   0.00009  -0.00047   1.04720
   D397       3.13530  -0.00000  -0.00027   0.00047   0.00020   3.13550
   D398      -1.05797   0.00000  -0.00028   0.00054   0.00026  -1.05771
   D399       1.04317  -0.00000  -0.00030   0.00048   0.00019   1.04336
   D400      -1.05940   0.00000  -0.00028   0.00054   0.00026  -1.05914
   D401       1.03051   0.00001  -0.00029   0.00061   0.00032   1.03083
   D402       3.13165   0.00000  -0.00031   0.00056   0.00025   3.13190
   D403       0.99165  -0.00000  -0.00027   0.00046   0.00019   0.99183
   D404       3.08156  -0.00000  -0.00028   0.00053   0.00024   3.08180
   D405      -1.10048  -0.00000  -0.00030   0.00047   0.00017  -1.10031
   D406      -1.04349  -0.00000  -0.00007  -0.00004  -0.00012  -1.04361
   D407       1.05180  -0.00000  -0.00011   0.00005  -0.00006   1.05174
   D408      -3.13783  -0.00000  -0.00009  -0.00000  -0.00010  -3.13793
   D409      -3.13920   0.00000  -0.00008   0.00005  -0.00003  -3.13922
   D410      -1.04391   0.00000  -0.00011   0.00014   0.00003  -1.04388
   D411       1.04964   0.00000  -0.00010   0.00009  -0.00001   1.04964
   D412       1.09564   0.00000  -0.00006   0.00004  -0.00002   1.09562
   D413      -3.09226   0.00000  -0.00010   0.00013   0.00003  -3.09223
   D414      -0.99871   0.00000  -0.00008   0.00008  -0.00000  -0.99871
   D415      -1.04164   0.00000   0.00014  -0.00018  -0.00003  -1.04167
   D416       1.08327   0.00000   0.00015  -0.00016  -0.00001   1.08326
   D417      -3.12231   0.00001   0.00015  -0.00012   0.00003  -3.12228
   D418       1.07395  -0.00000   0.00016  -0.00029  -0.00013   1.07382
   D419      -3.08433   0.00000   0.00017  -0.00027  -0.00011  -3.08443
[...]
 Alpha virt. eigenvalues --    2.68088   2.68340   2.68392   2.68764   2.68845
 Alpha virt. eigenvalues --    2.69443   2.69701   2.69797   2.69957   2.70278
 Alpha virt. eigenvalues --    2.70630   2.70809   2.71168   2.71389   2.71654
 Alpha virt. eigenvalues --    2.72136   2.72741   2.73206   2.74425   2.74954
 Alpha virt. eigenvalues --    2.75206   2.75466   2.75626   2.75758   2.75961
 Alpha virt. eigenvalues --    2.76076   2.76382   2.76527   2.76787   2.76971
 Alpha virt. eigenvalues --    2.77224   2.78284   2.78892   2.79456   2.79599
 Alpha virt. eigenvalues --    2.79841   2.79905   2.79981   2.80022   2.80124
 Alpha virt. eigenvalues --    2.80255   2.80292   2.80341   2.80417   2.80509
 Alpha virt. eigenvalues --    2.80720   2.80897   2.80950   2.81307   2.81608
 Alpha virt. eigenvalues --    2.81772   2.81975   2.82232   2.82493   2.82733
 Alpha virt. eigenvalues --    2.82908   2.83152   2.83528   2.83881   2.84654
 Alpha virt. eigenvalues --    2.84791   2.84993   2.85632   2.85828   2.86260
 Alpha virt. eigenvalues --    2.86453   2.86715   2.87065   2.88677   2.88904
 Alpha virt. eigenvalues --    2.89870   2.90344   2.90928   2.91279   2.91690
 Alpha virt. eigenvalues --    2.92216   2.92634   2.92685   2.92785   2.92866
 Alpha virt. eigenvalues --    2.92950   2.93152   2.93520   2.93588   2.93690
 Alpha virt. eigenvalues --    2.93807   2.93856   2.94037   2.94064   2.94270
 Alpha virt. eigenvalues --    2.94551   2.94645   2.94838   2.95146   2.95525
 Alpha virt. eigenvalues --    2.96469   2.97090   2.97854   2.98722   2.99194
 Alpha virt. eigenvalues --    2.99289   2.99494   2.99606   2.99686   2.99875
 Alpha virt. eigenvalues --    3.00087   3.00150   3.00415   3.00600   3.00806
 Alpha virt. eigenvalues --    3.01184   3.01904   3.02016   3.02320   3.02729
 Alpha virt. eigenvalues --    3.02804   3.03435   3.03477   3.04644   3.04897
 Alpha virt. eigenvalues --    3.05879   3.06874   3.07615   3.09274   3.09351
 Alpha virt. eigenvalues --    3.09614   3.09775   3.09892   3.10103   3.10476
 Alpha virt. eigenvalues --    3.14870   3.15818   3.16306   3.17599   3.18922
 Alpha virt. eigenvalues --    3.19302   3.21335   3.21816   3.22076   3.23427
 Alpha virt. eigenvalues --    3.23919   3.24175   3.24541   3.24572   3.24720
 Alpha virt. eigenvalues --    3.25398   3.25680   3.25789   3.27304   3.27489
 Alpha virt. eigenvalues --    3.27633   3.28821   3.29174   3.29751   3.29902
 Alpha virt. eigenvalues --    3.29941   3.30077   3.30240   3.30591   3.30665
 Alpha virt. eigenvalues --    3.30937   3.31272   3.31582   3.31962   3.32183
 Alpha virt. eigenvalues --    3.34056   3.34960   3.36116   3.36506   3.36896
 Alpha virt. eigenvalues --    3.37474   3.38446   3.40127   3.40489   3.41022
 Alpha virt. eigenvalues --    3.41719   3.42719   3.44060   3.44440   3.45064
 Alpha virt. eigenvalues --    3.46547   3.47547   3.47865   3.48032   3.48565
 Alpha virt. eigenvalues --    3.48572   3.48662   3.48911   3.49082   3.49273
 Alpha virt. eigenvalues --    3.49410   3.49797   3.49839   3.49950   3.50143
 Alpha virt. eigenvalues --    3.50207   3.50456   3.50750   3.50892   3.50929
 Alpha virt. eigenvalues --    3.51051   3.51149   3.51426   3.51559   3.51752
 Alpha virt. eigenvalues --    3.52097   3.52236   3.52464   3.52754   3.52941
 Alpha virt. eigenvalues --    3.55078   3.57411   3.57584   3.57820   3.58024
 Alpha virt. eigenvalues --    3.58186   3.58310   3.58730   3.59008   3.59142
 Alpha virt. eigenvalues --    3.60170   3.60560   3.60727   3.61049   3.61671
 Alpha virt. eigenvalues --    3.61891   3.65880   3.79486   3.79578   3.81713
 Alpha virt. eigenvalues --    3.87871   3.88215   3.88294   3.89925   3.94557
 Alpha virt. eigenvalues --    4.11688   4.15354   4.17482   4.18076   4.18585
 Alpha virt. eigenvalues --    4.19576   4.20365   4.22603   4.22999   4.24193
 Alpha virt. eigenvalues --    4.25056   4.25965   4.26063   4.26677   4.27270
 Alpha virt. eigenvalues --    4.27445   4.28528   4.29130   4.30106   4.30832
 Alpha virt. eigenvalues --    4.31417   4.32109   4.32998   4.34416   4.37009
 Alpha virt. eigenvalues --    4.37533   4.44066   4.44444   4.45231   4.45266
 Alpha virt. eigenvalues --    4.45553   4.45981   4.46525   4.46985   4.47311
 Alpha virt. eigenvalues --    4.48169   4.48649   4.51288   4.53004   4.54238
 Alpha virt. eigenvalues --    4.55524   4.56691   4.59227   4.59883   4.60388
 Alpha virt. eigenvalues --    4.60679   4.60777   4.61116   4.61177   4.61316
 Alpha virt. eigenvalues --    4.61542   4.61859   4.61993   4.62174   4.63662
 Alpha virt. eigenvalues --    4.65483   4.67005   4.67363   4.68008   4.68669
 Alpha virt. eigenvalues --    4.69733   4.69974   4.76875   4.78790   4.79352
 Alpha virt. eigenvalues --    4.79525   4.80369   4.80631   4.81273   4.84315
 Alpha virt. eigenvalues --    4.91451   4.92461   4.93988   4.96661   5.00914
 Alpha virt. eigenvalues --    5.02181   5.04162
          Condensed to atoms (all electrons):
 Mulliken charges:
               1
     1  C    0.318637
     2  C    0.326690
     3  C   -0.109530
     4  C    0.026407
     5  C   -0.154405
     6  C    0.044504
     7  C   -0.189116
     8  H    0.116838
     9  C   -0.209013
    10  C   -0.184939
    11  H    0.121710
    12  C   -0.207230
    13  C    0.116778
    14  H    0.119112
    15  H    0.118704
    16  C    0.119637
    17  H    0.117761
    18  H    0.124412
    19  C    0.176496
    20  C    0.215779
    21  C   -0.117713
    22  C   -0.229889
    23  C   -0.116728
    24  C    0.192417
    25  H    0.210119
    26  H    0.209469
    27  C   -0.066397
    28  C   -0.067834
    29  N   -0.709921
    30  C   -0.195284
    31  C   -0.126584
    32  C   -0.120986
    33  C   -0.138340
    34  H    0.185004
    35  C   -0.136515
    36  H    0.182624
    37  C   -0.127282
    38  H    0.157732
    39  H    0.158044
    40  H    0.155737
    41  O   -0.569141
    42  O   -0.572728
    43  C   -0.368001
    44  H    0.119233
    45  H    0.121738
    46  H    0.139284
    47  C   -0.361331
    48  H    0.118883
    49  H    0.132659
    50  H    0.123381
    51  C   -0.390383
    52  H    0.129631
    53  H    0.134066
    54  H    0.123230
    55  C   -0.385033
    56  H    0.124959
    57  H    0.129447
    58  H    0.125315
    59  C   -0.369803
    60  H    0.125156
    61  H    0.119912
    62  H    0.142388
    63  C   -0.364612
    64  H    0.120945
    65  H    0.128072
    66  H    0.131455
    67  S    1.190909
    68  N   -0.729077
    69  C    0.304791
    70  C    0.299434
    71  C   -0.146666
    72  C    0.020852
    73  C   -0.183283
    74  C    0.036100
    75  C   -0.170469
    76  H    0.133312
    77  C   -0.197902
    78  C   -0.180089
    79  H    0.139949
    80  C   -0.192233
    81  C    0.125648
    82  H    0.119733
    83  H    0.122369
    84  C    0.118721
    85  H    0.122733
    86  H    0.125078
    87  C   -0.073831
    88  C   -0.068729
    89  C   -0.363689
    90  C   -0.368458
    91  C   -0.382882
    92  C   -0.365809
    93  C   -0.363308
    94  C   -0.385388
    95  H    0.120870
    96  H    0.122109
    97  H    0.134716
    98  H    0.130508
    99  H    0.137432
   100  H    0.119690
   101  H    0.132087
   102  H    0.129537
   103  H    0.124617
   104  H    0.123588
   105  H    0.125790
   106  H    0.133506
   107  H    0.124022
   108  H    0.122714
   109  H    0.136568
   110  H    0.128032
   111  H    0.132151
   112  H    0.126805
   113  N   -0.756976
   114  C    0.316169
   115  C    0.322054
   116  C   -0.135180
   117  C    0.020766
   118  C   -0.157963
   119  C    0.018951
   120  C   -0.183519
   121  H    0.117452
   122  C   -0.198652
   123  C   -0.173345
   124  H    0.135179
   125  C   -0.196153
   126  C    0.121026
   127  H    0.114415
   128  H    0.124078
   129  C    0.122504
   130  H    0.120865
   131  H    0.123976
   132  C   -0.067216
   133  C   -0.067732
   134  C   -0.370026
   135  C   -0.361594
   136  C   -0.385674
   137  C   -0.386630
   138  C   -0.369551
   139  C   -0.363046
   140  H    0.121792
   141  H    0.123859
   142  H    0.141739
   143  H    0.134035
   144  H    0.125006
   145  H    0.122187
   146  H    0.129634
   147  H    0.127042
   148  H    0.126488
   149  H    0.129712
   150  H    0.131108
   151  H    0.125754
   152  H    0.123547
   153  H    0.120932
   154  H    0.144567
   155  H    0.122880
   156  H    0.135006
   157  H    0.122354
 Sum of Mulliken charges =  -0.00000
 Mulliken charges with hydrogens summed into heavy atoms:
               1
     1  C    0.318637
     2  C    0.326690
     3  C    0.007308
     4  C    0.026407
     5  C   -0.032696
     6  C    0.044504
     7  C   -0.070004
     9  C   -0.090309
    10  C   -0.067179
    12  C   -0.082818
    13  C    0.116778
    16  C    0.119637
    19  C    0.176496
    20  C    0.215779
    21  C    0.092406
    22  C   -0.229889
    23  C    0.092740
    24  C    0.192417
    27  C   -0.066397
    28  C   -0.067834
    29  N   -0.709921
    30  C   -0.195284
    31  C    0.058420
    32  C    0.061639
    33  C    0.019392
    35  C    0.021529
    37  C    0.028455
    41  O   -0.569141
    42  O   -0.572728
    43  C    0.012255
    47  C    0.013591
    51  C   -0.003456
    55  C   -0.005313
    59  C    0.017652
    63  C    0.015860
    67  S    1.190909
    68  N   -0.729077
    69  C    0.304791
    70  C    0.299434
    71  C   -0.013354
    72  C    0.020852
    73  C   -0.043334
    74  C    0.036100
    75  C   -0.050736
    77  C   -0.075533
    78  C   -0.057356
    80  C   -0.067154
    81  C    0.125648
    84  C    0.118721
    87  C   -0.073831
    88  C   -0.068729
    89  C    0.014006
    90  C    0.019172
    91  C    0.003358
    92  C    0.017074
    93  C    0.019996
    94  C    0.001600
   113  N   -0.756976
   114  C    0.316169
   115  C    0.322054
   116  C   -0.017729
   117  C    0.020766
   118  C   -0.022785
   119  C    0.018951
   120  C   -0.069104
   122  C   -0.074575
   123  C   -0.052480
   125  C   -0.072178
   126  C    0.121026
   129  C    0.122504
   132  C   -0.067216
   133  C   -0.067732
   134  C    0.017365
   135  C    0.019634
   136  C   -0.002510
   137  C   -0.000056
   138  C    0.019496
   139  C    0.017194
 Electronic spatial extent (au):  <R**2>=          63531.3852
 Charge=             -0.0000 electrons
 Dipole moment (field-independent basis, Debye):
    X=             -0.4987    Y=             -0.5419    Z=              5.0116  Tot=              5.0654
 Quadrupole moment (field-independent basis, Debye-Ang):
   XX=           -436.0907   YY=           -456.2046   ZZ=           -490.7266
   XY=            -13.6055   XZ=            -19.7758   YZ=             20.8708
 Traceless Quadrupole moment (field-independent basis, Debye-Ang):
   XX=             24.9166   YY=              4.8027   ZZ=            -29.7193
   XY=            -13.6055   XZ=            -19.7758   YZ=             20.8708
 Octapole moment (field-independent basis, Debye-Ang**2):
  XXX=            -54.6020  YYY=            -22.0213  ZZZ=            242.9540  XYY=            -45.5999
  XXY=             19.5704  XXZ=             60.1121  XZZ=            126.7465  YZZ=           -111.8635
  YYZ=             98.0663  XYZ=            -15.6225
 Hexadecapole moment (field-independent basis, Debye-Ang**3):
 XXXX=         -37270.0467 YYYY=         -27343.1396 ZZZZ=         -21302.5497 XXXY=           -353.2368
 XXXZ=           -278.2500 YYYX=           -358.2159 YYYZ=            210.9002 ZZZX=           -673.7376
 ZZZY=            757.5915 XXYY=         -10945.8709 XXZZ=         -10037.8157 YYZZ=          -8527.2378
 XXYZ=            143.1061 YYXZ=           -220.2746 ZZXY=            259.3177
 N-N= 1.438372019963D+04 E-N=-3.690689183937D+04  KE= 3.473422183745D+03
 Leave Link  601 at Thu Sep 19 14:15:00 2024, MaxMem=  2147483648 cpu:              35.6 elap:               3.5
 (Enter /apps/gaussian/g16/l9999.exe)

 Test job not archived.
 1\1\GINC-PMLP-HPCCLSAP02\FOpt\RwB97XD TDA-FC\6-31G(d,p)\C72H79N3O2S1\W
 ILLIAM1\19-Sep-2024\0\\#p opt wb97xd/6-31G** iop(3/107=0105700000,3/10
 8=0105700000) TDA=(singlets, nstates=4, root=1)\\Tuning input file gen
 erated by xtune with parameters: w01057\\0,1\C,0.8269745763,-0.8923246
 996,-0.3366152771\C,-0.6666852723,-0.1336163927,1.152198066\C,1.748697
 4582,-1.0089569299,-1.3786802911\C,0.5831073909,-1.963933778,0.5646673
 762\C,-1.5365872221,0.6742811146,1.8801789982\C,-0.4026201608,-1.47192
 43472,1.5242144813\C,2.424057606,-2.2216241396,-1.5094694527\H,1.94969
 7157,-0.1769613812,-2.0374732616\C,1.2689186371,-3.1482162292,0.413024
 4808\C,-2.1732256027,0.1026602452,2.9835936705\H,-1.6963957664,1.70934
 64454,1.6107751944\C,-1.0457072267,-2.0119983541,2.6187541801\C,2.2122
 407896,-3.2985832431,-0.6370065074\H,3.1455949033,-2.3086357093,-2.309
 581677\H,1.0955555909,-3.9624108037,1.1077014743\C,-1.9589522069,-1.22
 7447665,3.3686031255\H,-2.8535841898,0.7274201127,3.5456962041\H,-0.85
 0086719,-3.0394570917,2.9055835954\C,0.0455951128,1.4966775588,-0.5939
 066156\C,-1.1949077171,1.9084358237,-1.1699300682\C,-1.5858407875,3.22
 06255715,-1.1662415793\C,-0.7622978626,4.1951936313,-0.5234664864\C,0.
 4954240274,3.8198632179,0.0225265151\C,0.8916316073,2.5099974819,-0.00
 77560865\H,-2.5006571563,3.5246927963,-1.6612671749\H,1.1538575367,4.5
 78710902,0.4305392944\C,2.9897776888,-4.6164171682,-0.7496838552\C,-2.
 6741229957,-1.8621907929,4.5700984655\N,0.062069465,0.1910358948,0.020
 7339269\C,-2.3737411807,5.3538161136,1.4220735649\C,-3.6996131506,4.92
 44585354,1.3334575527\C,-1.7120636998,5.3895464032,2.6511126175\C,-4.3
 648434332,4.5178948555,2.4898790774\H,-4.1996414776,4.9335685743,0.371
 636473\C,-2.3858551005,4.9829171901,3.801379175\H,-0.6896760152,5.7469
 163543,2.6972095326\C,-3.7089069234,4.5417446113,3.7222852529\H,-5.399
 2154304,4.1954348392,2.4298314554\H,-1.881098366,5.01905036,4.76118667
 23\H,-4.2315491594,4.2309472119,4.6210118839\O,-0.3847922761,6.6587642
 471,0.2823075259\O,-2.4672344905,6.1007213754,-1.0973592489\C,1.999532
 6635,-5.8002210515,-0.8456454919\H,2.5512376515,-6.7412723468,-0.93275
 4098\H,1.3584924806,-5.87759667,0.0364622561\H,1.3540877374,-5.7010557
 206,-1.7224602155\C,3.8695801088,-4.7764891594,0.5134816882\H,4.445651
 3223,-5.7054225663,0.4556869385\H,4.5709309117,-3.9425125268,0.6065521
 338\H,3.2689882414,-4.8130228493,1.4266718476\C,3.9043435786,-4.655306
 3312,-1.9867883333\H,3.3367191473,-4.537670977,-2.9149042356\H,4.67485
 17355,-3.8804903557,-1.9497813995\H,4.4150503086,-5.6211925145,-2.0326
 205527\C,-3.6503438607,-0.8878461358,5.2533235979\H,-3.1370075205,-0.0
 07230263,5.6511532798\H,-4.4355070572,-0.5526416634,4.5689502945\H,-4.
 1382501644,-1.3895189256,6.0936912103\C,-3.4795350059,-3.091119169,4.0
 876610381\H,-2.8366640916,-3.8571178166,3.6456707284\H,-4.0072471658,-
 3.5489365622,4.9301991355\H,-4.2191175114,-2.7997115033,3.3374031086\C
 ,-1.6237015344,-2.3072539581,5.6136226135\H,-2.1194488908,-2.769481051
 1,6.4730395678\H,-0.9216241689,-3.0382345517,5.2038881703\H,-1.0460185
 711,-1.4513306488,5.973431563\S,-1.4621016499,5.7329511681,-0.09116263
 76\N,2.1902120882,2.1007220156,0.4331224853\C,2.4645471723,1.449725445
 ,1.6352601461\C,3.2115854916,1.7858765428,-0.4585331483\C,1.7313823371
 ,1.439172481,2.8213544691\C,3.6787370411,0.7395815127,1.5258180807\C,3
 .3568281153,2.1613304291,-1.7919449522\C,4.1637150377,0.9574555054,0.1
 777071394\C,2.2218737452,0.6822959629,3.8772273344\H,0.8100698442,2.00
 24715569,2.9131143809\C,4.1538441416,-0.0025723945,2.6120753508\C,4.47
 53388415,1.6956594104,-2.4790166387\H,2.6256187606,2.7999592134,-2.274
 2784406\C,5.2778580796,0.5148974066,-0.5361992636\C,3.4282068762,-0.05
 20528229,3.8023249944\H,1.6456783828,0.6647595636,4.7968386618\H,5.087
 8630604,-0.5418857111,2.5080891542\C,5.4528702537,0.8748593412,-1.8773
 329174\H,4.5879246391,1.9937754761,-3.5142243115\H,6.0076727585,-0.115
 9924342,-0.0379270265\C,3.8858313537,-0.8762327123,5.018321413\C,6.696
 776697,0.379731287,-2.639016328\C,4.0583365766,0.0513911655,6.24218516
 79\C,2.8221960071,-1.9524825846,5.3331718355\C,5.2264828171,-1.5901985
 808,4.7684804913\C,6.709087427,-1.1654787343,-2.6612479164\C,7.9703772
 537,0.8922784495,-1.9288076632\C,6.7309282649,0.8756545261,-4.09613547
 36\H,3.1232967865,0.551165312,6.5097169393\H,4.3890743587,-0.522313183
 3,7.1147594721\H,4.8036439806,0.8258559523,6.039150376\H,1.8526518504,
 -1.5053878838,5.5667279292\H,2.6843601528,-2.620572985,4.47743055\H,3.
 1279152436,-2.5563495796,6.1945829364\H,5.1617735347,-2.2951544652,3.9
 335531883\H,6.0313778778,-0.8792044589,4.5582220861\H,5.513177865,-2.1
 593724426,5.6580196635\H,7.5971227371,-1.536127059,-3.1844459572\H,6.7
 187895707,-1.5856478662,-1.6515964751\H,5.8255196384,-1.5509608993,-3.
 1792758131\H,8.0382825669,0.5242029087,-0.9013864476\H,8.8674753511,0.
 5591866394,-2.4618910134\H,7.979812495,1.9853930609,-1.8922221476\H,5.
 8657168447,0.5238097354,-4.6669437566\H,6.7602453457,1.9679172546,-4.1
 529457221\H,7.6288274986,0.4963054327,-4.5933500276\N,-2.0141445045,0.
 8812575733,-1.7274514805\C,-3.2337963071,0.449961952,-1.2189509637\C,-
 1.6160977231,-0.00900589,-2.7209427832\C,-4.0322563273,1.0097976223,-0
 .2235536112\C,-3.618455264,-0.7439018285,-1.8763370078\C,-0.4945464878
 ,0.0302425679,-3.5439103163\C,-2.5752945475,-1.0390598288,-2.841204961
 9\C,-5.2133020176,0.3509889124,0.1112837962\H,-3.7569335745,1.93878837
 56,0.2604260293\C,-4.8085921151,-1.3729630859,-1.5226588172\C,-0.32825
 20264,-1.0022630146,-4.4663029563\H,0.2172901424,0.8440755604,-3.47800
 8982\C,-2.3812526353,-2.0553367754,-3.7738984461\C,-5.6279805698,-0.83
 83074403,-0.5180494931\H,-5.8299433388,0.7935980558,0.8838085122\H,-5.
 0975255937,-2.2835309228,-2.038074837\C,-1.246673484,-2.0604894769,-4.
 5975919142\H,0.547299641,-0.9677011544,-5.102878991\H,-3.1216114851,-2
 .8449937561,-3.8565425528\C,-6.9497272951,-1.5436813473,-0.164707352\C
 ,-1.0490894086,-3.2059637623,-5.606808625\C,-6.6692241132,-3.009981499
 5,0.2349738524\C,-7.8822807735,-1.5183206409,-1.3974956152\C,-7.682152
 0115,-0.8640596632,1.0065395295\C,0.2481721599,-3.0530571072,-6.421561
 6948\C,-0.9791536914,-4.5495371777,-4.8458244565\C,-2.2363977621,-3.23
 4478482,-6.5956973443\H,-7.6031446377,-3.5196937281,0.4945924908\H,-6.
 2016221465,-3.5733090887,-0.5770429065\H,-6.002427487,-3.0572785639,1.
 1005507123\H,-8.0945974548,-0.4895181109,-1.702459061\H,-7.43450917,-2
 .0333601502,-2.2520245709\H,-8.8333313801,-2.0119940447,-1.1701559433\
 H,-7.0718960112,-0.8537241771,1.9153788633\H,-7.9642475283,0.166016635
 2,0.7685292429\H,-8.602432259,-1.4109279618,1.2326180648\H,0.251367915
 7,-2.1325999283,-7.0132947516\H,1.1342824122,-3.0534656948,-5.77876117
 64\H,0.3464168322,-3.8913073678,-7.117913996\H,-1.8961813722,-4.746776
 3541,-4.2837398137\H,-0.8325095746,-5.3798151271,-5.5450440806\H,-0.14
 67396881,-4.5474590745,-4.1360947591\H,-3.1884272605,-3.3970674808,-6.
 0829078138\H,-2.3091369871,-2.2895899925,-7.1419608587\H,-2.1093035043
 ,-4.0426049374,-7.3240384237\\Version=ES64L-G16RevC.01\State=1-A\HF=-3
 503.7444221\RMSD=3.295e-09\RMSF=7.043e-07\Dipole=0.2563187,-5.9544631,
 1.6586546\PG=C01 [X(C72H79N3O2S1)]\\@


 WE MIGHT AS WELL ATTEMPT TO INTRODUCE A NEW PLANET 
 INTO THE SOLAR SYSTEM, OR TO ANNIHILATE ONE ALREADYIN EXISTENCE, 
 AS TO CREATE OR DESTROY A PARTICLE OF HYDROGEN.
 ALL THE CHANGES WE CAN PRODUCE CONSIST IN SEPARATING PARTICLES
 THAT ARE IN A STATE OF ... COMBINATION, AND JOINING 
 THOSE THAT WERE PREVIOUSLY AT A DISTANCE.

                                    -- JOHN DALTON, 1810
 Job cpu time:      13 days 20 hours 16 minutes 43.9 seconds.
 Elapsed time:       1 days  9 hours 25 minutes 11.3 seconds.
 File lengths (MBytes):  RWF=  11756 Int=      0 D2E=      0 Chk=    563 Scr=      1
 Normal termination of Gaussian 16 at Thu Sep 19 14:15:05 2024.
