 Entering Gaussian System, Link 0=g16
 Initial command:
 /apps/gaussian/g16/l1.exe "/local/Gau-3441.inp" -scrdir="/local/"
 Entering Link 1 = /apps/gaussian/g16/l1.exe PID=      3456.
  
 Copyright (c) 1988-2019, Gaussian, Inc.  All Rights Reserved.
  
 This is part of the Gaussian(R) 16 program.  It is based on
 the Gaussian(R) 09 system (copyright 2009, Gaussian, Inc.),
 the Gaussian(R) 03 system (copyright 2003, Gaussian, Inc.),
 the Gaussian(R) 98 system (copyright 1998, Gaussian, Inc.),
 the Gaussian(R) 94 system (copyright 1995, Gaussian, Inc.),
 the Gaussian 92(TM) system (copyright 1992, Gaussian, Inc.),
 the Gaussian 90(TM) system (copyright 1990, Gaussian, Inc.),
 the Gaussian 88(TM) system (copyright 1988, Gaussian, Inc.),
 the Gaussian 86(TM) system (copyright 1986, Carnegie Mellon
 University), and the Gaussian 82(TM) system (copyright 1983,
 Carnegie Mellon University). Gaussian is a federally registered
 trademark of Gaussian, Inc.
  
 This software contains proprietary and confidential information,
 including trade secrets, belonging to Gaussian, Inc.
  
 This software is provided under written license and may be
 used, copied, transmitted, or stored only in accord with that
 written license.
  
 The following legend is applicable only to US Government
 contracts under FAR:
  
                    RESTRICTED RIGHTS LEGEND
  
 Use, reproduction and disclosure by the US Government is
 subject to restrictions as set forth in subparagraphs (a)
 and (c) of the Commercial Computer Software - Restricted
 Rights clause in FAR 52.227-19.
  
 Gaussian, Inc.
 340 Quinnipiac St., Bldg. 40, Wallingford CT 06492
  
  
 ---------------------------------------------------------------
 Warning -- This program may not be used in any manner that
 competes with the business of Gaussian, Inc. or will provide
 assistance to any competitor of Gaussian, Inc.  The licensee
 of this program is prohibited from giving any competitor of
 Gaussian, Inc. access to this program.  By using this program,
 the user acknowledges that Gaussian, Inc. is engaged in the
 business of creating and licensing software in the field of
 computational chemistry and represents and warrants to the
 licensee that it is not a competitor of Gaussian, Inc. and that
 it will not use this program in any manner prohibited above.
 ---------------------------------------------------------------
  

 Cite this work as:
 Gaussian 16, Revision C.01,
 M. J. Frisch, G. W. Trucks, H. B. Schlegel, G. E. Scuseria, 
 M. A. Robb, J. R. Cheeseman, G. Scalmani, V. Barone, 
 G. A. Petersson, H. Nakatsuji, X. Li, M. Caricato, A. V. Marenich, 
 J. Bloino, B. G. Janesko, R. Gomperts, B. Mennucci, H. P. Hratchian, 
 J. V. Ortiz, A. F. Izmaylov, J. L. Sonnenberg, D. Williams-Young, 
 F. Ding, F. Lipparini, F. Egidi, J. Goings, B. Peng, A. Petrone, 
 T. Henderson, D. Ranasinghe, V. G. Zakrzewski, J. Gao, N. Rega, 
 G. Zheng, W. Liang, M. Hada, M. Ehara, K. Toyota, R. Fukuda, 
 J. Hasegawa, M. Ishida, T. Nakajima, Y. Honda, O. Kitao, H. Nakai, 
 T. Vreven, K. Throssell, J. A. Montgomery, Jr., J. E. Peralta, 
 F. Ogliaro, M. J. Bearpark, J. J. Heyd, E. N. Brothers, K. N. Kudin, 
 V. N. Staroverov, T. A. Keith, R. Kobayashi, J. Normand, 
 K. Raghavachari, A. P. Rendell, J. C. Burant, S. S. Iyengar, 
 J. Tomasi, M. Cossi, J. M. Millam, M. Klene, C. Adamo, R. Cammi, 
 J. W. Ochterski, R. L. Martin, K. Morokuma, O. Farkas, 
 J. B. Foresman, and D. J. Fox, Gaussian, Inc., Wallingford CT, 2019.
 
 ******************************************
 Gaussian 16:  ES64L-G16RevC.01  3-Jul-2019
                17-Aug-2024 
 ******************************************
 %chk=YZ-VIII-195.chk
 %nprocshared=16
 Will use up to   16 processors via shared memory.
 %mem=16GB
 ----------------------------------------------------------------------
 #p opt=Restart wB97XD/6-31G** iop(3/107=0136000000, 3/108=0136000000) 
 TDA=(singlets, nstates=4, root=1)
 ----------------------------------------------------------------------
 1/18=20,19=15,26=3,35=1/3(2);
 2/9=110/2;
 99//99;
 2/9=110/2;
 3/5=1,6=6,7=101,11=9,25=1,30=1,71=1,74=-58,107=136000000,108=136000000/1,2,3,8;
 4/5=5,16=3,69=1/1;
 5/5=2,38=5/2;
 8/6=1,10=2,107=1,108=4/1;
 9/8=1,15=2,41=4,42=1,48=1,49=4/14;
 10/5=4,28=1/2;
 7/12=6,13=5,14=1/1,2,3,16;
 1/18=20,19=15,26=3/3(-8);
 2/9=110/2;
 6/7=2,8=2,9=2,10=2/1;
 99/9=10/99;
 Leave Link    1 at Sat Aug 17 00:59:56 2024, MaxMem=  2147483648 cpu:               1.2 elap:               0.2
 (Enter /apps/gaussian/g16/l103.exe)

 GradGradGradGradGradGradGradGradGradGradGradGradGradGradGradGradGradGrad
 Berny optimization.
 Restoring state from the checkpoint file "YZ-VIII-195.chk".
 ONIOM results not found on unit 2.
 Title:  Tuning input file generated by xtune with parameters: w01360
 Route:  #p opt wB97XD/6-31G** iop(3/107=0136000000, 3/108=0136000000) TDA=(singl
 ets, nstates=4, root=1)
 FncErr=1.00D-07 GrdErr=1.00D-06 EigMax=2.50D+02 EigMin=1.00D-04
 Using GEDIIS/GDIIS optimizer.
 FormGI is forming the generalized inverse of G from B-inverse, IUseBI=4.
 Internal  Forces:  Max     0.000534608 RMS     0.000048009
 Search for a local minimum.
 Step number  53 out of a maximum of  390
 All quantities printed in internal units (Hartrees-Bohrs-Radians)
 RMS Force = .48009D-04 SwitMx=.10000D-02 MixMth= 2
 Mixed Optimization -- En-DIIS/RFO-DIIS
 Swapping is turned off.
 Update second derivatives using D2CorX and points   39   40   41   42   43
                                                     44   45   46   47   48
                                                     49   50   51   52   53
 DE= -2.10D-06 DEPred=-1.07D-05 R= 1.97D-01
 Trust test= 1.97D-01 RLast= 1.16D-01 DXMaxT set to 1.00D-01
 ITU=  0  1  1 -1  1 -1  1  1 -1 -1  1 -1 -1  1  1  1  1  1  1 -1
 ITU=  0  0 -1  0 -1  1 -1 -1 -1  0 -1 -1  0  0  0  1 -1  1 -1  1
 ITU= -1  1  1  1  1  1  1  1  0 -1 -1  1  0
     Eigenvalues ---    0.00064   0.00347   0.00403   0.00562   0.00801
     Eigenvalues ---    0.00888   0.01238   0.01494   0.01559   0.01721
     Eigenvalues ---    0.01751   0.01789   0.01843   0.01894   0.01924
     Eigenvalues ---    0.01975   0.02004   0.02032   0.02039   0.02068
     Eigenvalues ---    0.02094   0.02103   0.02106   0.02111   0.02113
     Eigenvalues ---    0.02124   0.02134   0.02139   0.02143   0.02144
     Eigenvalues ---    0.02149   0.02154   0.02158   0.02159   0.02164
     Eigenvalues ---    0.02166   0.02168   0.02170   0.02174   0.02176
     Eigenvalues ---    0.02177   0.02179   0.02179   0.02182   0.02184
     Eigenvalues ---    0.02195   0.02201   0.02209   0.02233   0.02241
     Eigenvalues ---    0.02281   0.02304   0.02484   0.02518   0.02620
     Eigenvalues ---    0.02667   0.03146   0.03256   0.05003   0.09793
     Eigenvalues ---    0.10556   0.11661   0.14408   0.14931   0.15525
     Eigenvalues ---    0.15721   0.15876   0.15917   0.15957   0.15963
     Eigenvalues ---    0.15980   0.15998   0.15998   0.15999   0.15999
     Eigenvalues ---    0.16000   0.16001   0.16003   0.16006   0.16008
     Eigenvalues ---    0.16011   0.16023   0.16034   0.16053   0.16067
     Eigenvalues ---    0.16124   0.17627   0.18604   0.19163   0.20259
     Eigenvalues ---    0.21166   0.21700   0.21970   0.21999   0.22056
     Eigenvalues ---    0.22068   0.22090   0.22156   0.22643   0.22760
     Eigenvalues ---    0.22920   0.23019   0.23513   0.23786   0.23987
     Eigenvalues ---    0.24418   0.24466   0.24537   0.24681   0.24721
     Eigenvalues ---    0.24919   0.25040   0.25388   0.25909   0.25978
     Eigenvalues ---    0.26899   0.28130   0.29785   0.34539   0.35299
     Eigenvalues ---    0.35368   0.35373   0.35377   0.35380   0.35392
     Eigenvalues ---    0.35394   0.35408   0.35421   0.35428   0.35434
     Eigenvalues ---    0.35434   0.35438   0.35440   0.35449   0.35453
     Eigenvalues ---    0.35485   0.35492   0.35496   0.35509   0.35537
     Eigenvalues ---    0.35579   0.35650   0.35758   0.35884   0.36339
     Eigenvalues ---    0.36561   0.37418   0.37959   0.39704   0.40427
     Eigenvalues ---    0.41269   0.41844   0.42384   0.42434   0.42538
     Eigenvalues ---    0.42638   0.42808   0.42869   0.43147   0.43554
     Eigenvalues ---    0.43801   0.44114   0.44157   0.44629   0.44907
     Eigenvalues ---    0.45217   0.45797   0.45959   0.46128   0.46321
     Eigenvalues ---    0.46397   0.46537   0.46581   0.46660   0.46763
     Eigenvalues ---    0.46856   0.46890   0.46932   0.47061   0.47311
     Eigenvalues ---    0.47622   0.47828   0.49023   0.51667   0.55050
     Eigenvalues ---    0.58389   0.83934   0.88657   0.90440
 En-DIIS/RFO-DIIS/Sim-DIIS IScMMF=       -3 using points:    53   52   51   50   49   48   47   46   45   44
 RFO step:  Lambda=-1.00374600D-05.
 NNeg= 0 NGDIIS=10 SimSw=  2.50D-01 Rises=F DC= -2.10D-06 SmlDif=  1.00D-05
 NRisDI= 0 DoIntr=F SqrtH=F CThrHd= 10.0 CDAdj=  3.0
 RMS Error=  0.1872827161D-02 NUsed=10 OKEnD=F EnDIS=F
 InvSVX:  RCond= 1.03D-06 Info=           0 Equed=N FErr=  3.38D-12 BErr=  6.20D-17
 DidBck=T Rises=F RFO-DIIS coefs:    0.58604    0.24557   -0.08532    0.38543   -0.00442
                  RFO-DIIS coefs:    0.06651   -0.04739    0.02968   -0.01356   -0.16253
 Iteration  1 RMS(Cart)=  0.04150188 RMS(Int)=  0.00017283
 Iteration  2 RMS(Cart)=  0.00059782 RMS(Int)=  0.00005153
 Iteration  3 RMS(Cart)=  0.00000005 RMS(Int)=  0.00005153
 ITry= 1 IFail=0 DXMaxC= 1.69D-01 DCOld= 1.00D+10 DXMaxT= 1.00D-01 DXLimC= 3.00D+00 Rises=F
 Variable       Old X    -DE/DX   Delta X   Delta X   Delta X     New X
                                 (Linear)    (Quad)   (Total)
    R1        2.71306   0.00014  -0.00177   0.00011  -0.00173   2.71133
    R2        2.69209   0.00028  -0.00064   0.00002  -0.00069   2.69140
    R3        2.71037   0.00053  -0.00152   0.00019  -0.00134   2.70903
    R4        2.57908   0.00009  -0.00001   0.00009   0.00008   2.57916
    R5        2.72275  -0.00004  -0.00049  -0.00006  -0.00055   2.72221
    R6        2.68617   0.00010   0.00105   0.00004   0.00116   2.68732
    R7        2.04897   0.00001  -0.00004  -0.00001  -0.00005   2.04892
    R8        2.71459  -0.00018   0.00041  -0.00013   0.00035   2.71494
    R9        3.27369   0.00017  -0.00024   0.00021  -0.00003   3.27366
   R10        2.58932  -0.00002  -0.00004   0.00003  -0.00002   2.58930
   R11        2.04778   0.00002   0.00000   0.00000   0.00001   2.04779
   R12        2.05066   0.00000  -0.00006  -0.00003  -0.00008   2.05058
   R13        2.77839  -0.00008  -0.00005  -0.00002  -0.00008   2.77831
   R14        2.77592  -0.00004  -0.00004  -0.00001  -0.00006   2.77587
   R15        3.40579  -0.00002   0.00001  -0.00003  -0.00002   3.40577
   R16        2.61630   0.00009   0.00041   0.00012   0.00053   2.61683
   R17        2.61159   0.00011  -0.00044   0.00010  -0.00035   2.61125
   R18        2.63659  -0.00003  -0.00030   0.00000  -0.00030   2.63629
   R19        2.67639  -0.00002  -0.00029  -0.00004  -0.00033   2.67606
   R20        2.63852   0.00003   0.00050   0.00001   0.00050   2.63902
   R21        2.67716   0.00002   0.00032  -0.00000   0.00032   2.67748
   R22        2.63283  -0.00003   0.00030  -0.00007   0.00023   2.63306
   R23        2.04610  -0.00000   0.00002   0.00001   0.00002   2.04613
   R24        2.75024  -0.00006  -0.00006  -0.00006  -0.00012   2.75012
   R25        2.62542   0.00009   0.00000   0.00009   0.00009   2.62552
   R26        2.63480  -0.00002  -0.00026  -0.00001  -0.00027   2.63453
   R27        2.04801  -0.00002  -0.00003   0.00000  -0.00003   2.04798
   R28        2.62365   0.00006  -0.00015   0.00003  -0.00012   2.62353
   R29        2.64343   0.00004  -0.00022   0.00007  -0.00015   2.64328
   R30        2.04870   0.00001   0.00001   0.00001   0.00002   2.04871
   R31        2.64365  -0.00015   0.00002  -0.00014  -0.00012   2.64352
   R32        2.05039  -0.00000  -0.00001  -0.00001  -0.00002   2.05037
   R33        2.64354   0.00003  -0.00002   0.00006   0.00004   2.64357
   R34        2.04940   0.00001  -0.00005   0.00000  -0.00004   2.04935
   R35        2.64521  -0.00010   0.00009  -0.00006   0.00003   2.64524
   R36        2.05010   0.00000  -0.00002   0.00000  -0.00002   2.05008
   R37        2.04953   0.00000  -0.00004   0.00000  -0.00004   2.04949
   R38        2.04963   0.00001  -0.00001   0.00001  -0.00000   2.04962
   R39        2.61488   0.00003  -0.00033   0.00006  -0.00027   2.61461
   R40        2.61416  -0.00004   0.00088  -0.00015   0.00073   2.61489
   R41        2.63792   0.00003   0.00013  -0.00009   0.00005   2.63796
   R42        2.67703   0.00001   0.00015  -0.00006   0.00009   2.67712
   R43        2.63782  -0.00002  -0.00030   0.00002  -0.00028   2.63753
   R44        2.67791   0.00005  -0.00024   0.00012  -0.00012   2.67778
   R45        2.63824   0.00001  -0.00037   0.00006  -0.00031   2.63793
   R46        2.04722  -0.00002  -0.00004   0.00001  -0.00002   2.04720
   R47        2.75497  -0.00006  -0.00030   0.00002  -0.00028   2.75469
   R48        2.61753  -0.00010   0.00013  -0.00007   0.00006   2.61759
   R49        2.63296   0.00005   0.00040   0.00000   0.00040   2.63336
   R50        2.04488   0.00002   0.00017  -0.00000   0.00017   2.04504
   R51        2.61993  -0.00005   0.00011  -0.00005   0.00005   2.61999
   R52        2.63881  -0.00003   0.00026  -0.00004   0.00021   2.63902
   R53        2.04887  -0.00000   0.00001   0.00000   0.00001   2.04888
   R54        2.65232   0.00003  -0.00028   0.00007  -0.00021   2.65211
   R55        2.04998  -0.00001  -0.00001  -0.00001  -0.00002   2.04996
   R56        2.64167   0.00000  -0.00022  -0.00000  -0.00022   2.64145
   R57        2.04832  -0.00002  -0.00001  -0.00001  -0.00002   2.04830
   R58        2.64900   0.00007   0.00003   0.00007   0.00011   2.64911
   R59        2.05009  -0.00001   0.00002  -0.00001   0.00001   2.05010
   R60        2.04947  -0.00002  -0.00002  -0.00002  -0.00004   2.04943
   R61        2.04942   0.00000  -0.00000   0.00001   0.00000   2.04942
   R62        2.63652   0.00001   0.00027   0.00000   0.00028   2.63680
   R63        2.63600  -0.00001   0.00013  -0.00002   0.00011   2.63611
   R64        2.63203   0.00000   0.00007  -0.00001   0.00005   2.63208
   R65        2.04917  -0.00000   0.00000   0.00001   0.00001   2.04918
   R66        2.63196  -0.00001  -0.00004   0.00000  -0.00004   2.63192
   R67        2.04884  -0.00000   0.00001  -0.00000   0.00001   2.04885
   R68        2.63694  -0.00001   0.00003   0.00000   0.00003   2.63697
   R69        2.05117   0.00000   0.00004   0.00001   0.00005   2.05122
   R70        2.63667  -0.00000   0.00006   0.00001   0.00006   2.63673
   R71        2.05100  -0.00000   0.00002  -0.00001   0.00001   2.05101
   R72        2.05103  -0.00001  -0.00001  -0.00001  -0.00002   2.05101
    A1        2.06608  -0.00004   0.00236   0.00018   0.00288   2.06896
    A2        2.02779   0.00021   0.00558  -0.00005   0.00616   2.03395
    A3        2.13731  -0.00012   0.00501  -0.00016   0.00547   2.14279
    A4        2.13096  -0.00005  -0.00069  -0.00013  -0.00095   2.13001
    A5        2.02222   0.00002   0.00147  -0.00018   0.00136   2.02358
    A6        2.12731   0.00004  -0.00071   0.00031  -0.00033   2.12698
    A7        2.07636   0.00001   0.00003  -0.00007  -0.00004   2.07632
    A8        2.10868   0.00000  -0.00012   0.00004  -0.00009   2.10860
    A9        2.09810  -0.00001   0.00009   0.00003   0.00012   2.09822
   A10        2.08811   0.00006  -0.00013   0.00011   0.00005   2.08816
   A11        2.07823   0.00001  -0.00133  -0.00003  -0.00139   2.07684
   A12        2.10289  -0.00007  -0.00029  -0.00010  -0.00042   2.10247
   A13        2.10826   0.00005   0.00009   0.00006   0.00015   2.10841
   A14        2.07134  -0.00003  -0.00014  -0.00003  -0.00016   2.07118
   A15        2.10327  -0.00002   0.00004  -0.00004   0.00001   2.10328
   A16        2.09334  -0.00001  -0.00093  -0.00017  -0.00124   2.09210
   A17        2.08586   0.00001   0.00031   0.00009   0.00047   2.08633
   A18        2.10398   0.00000   0.00062   0.00008   0.00077   2.10475
   A19        1.89375  -0.00002   0.00007   0.00011   0.00019   1.89393
   A20        1.89809  -0.00000   0.00018   0.00010   0.00027   1.89836
   A21        1.83766   0.00003  -0.00082  -0.00005  -0.00087   1.83680
   A22        2.11553  -0.00001   0.00009  -0.00005   0.00004   2.11557
   A23        1.84743   0.00002  -0.00007  -0.00003  -0.00010   1.84733
   A24        1.85182  -0.00001   0.00039  -0.00010   0.00029   1.85211
   A25        2.19686   0.00002   0.00016   0.00017   0.00032   2.19718
   A26        2.15417   0.00002   0.00021  -0.00018   0.00004   2.15421
   A27        1.89509  -0.00004   0.00017  -0.00005   0.00012   1.89521
   A28        2.23877   0.00004   0.00005   0.00003   0.00008   2.23885
   A29        1.90947   0.00000  -0.00010  -0.00001  -0.00011   1.90936
   A30        2.13494  -0.00004   0.00005  -0.00002   0.00003   2.13497
   A31        2.23437   0.00009   0.00033   0.00003   0.00036   2.23473
   A32        1.91160  -0.00002  -0.00020  -0.00000  -0.00020   1.91140
   A33        2.13708  -0.00006  -0.00013  -0.00003  -0.00015   2.13693
   A34        2.04626   0.00000  -0.00010  -0.00000  -0.00010   2.04616
   A35        2.10565   0.00002   0.00029   0.00002   0.00031   2.10596
   A36        2.13103  -0.00002  -0.00019  -0.00002  -0.00021   2.13082
   A37        1.85456   0.00003   0.00002   0.00004   0.00006   1.85462
   A38        2.08224   0.00003   0.00010   0.00002   0.00012   2.08236
   A39        2.34637  -0.00006  -0.00011  -0.00006  -0.00018   2.34619
   A40        2.04499   0.00002   0.00002   0.00002   0.00004   2.04502
   A41        2.10505  -0.00000   0.00013   0.00002   0.00015   2.10520
   A42        2.13304  -0.00002  -0.00016  -0.00004  -0.00020   2.13284
   A43        1.85294   0.00003   0.00009   0.00002   0.00012   1.85305
   A44        2.08131   0.00002  -0.00005   0.00001  -0.00004   2.08127
   A45        2.34890  -0.00005  -0.00004  -0.00003  -0.00008   2.34883
   A46        2.11522   0.00005   0.00011   0.00004   0.00015   2.11537
   A47        2.08076  -0.00002  -0.00013   0.00000  -0.00012   2.08064
   A48        2.08720  -0.00002   0.00002  -0.00004  -0.00002   2.08718
   A49        2.07369  -0.00000  -0.00001  -0.00000  -0.00002   2.07367
   A50        2.10818  -0.00001  -0.00005  -0.00002  -0.00006   2.10812
   A51        2.10130   0.00001   0.00006   0.00002   0.00008   2.10139
   A52        2.11414   0.00003   0.00001   0.00001   0.00002   2.11416
   A53        2.08193  -0.00001  -0.00004  -0.00000  -0.00004   2.08189
   A54        2.08712  -0.00002   0.00003  -0.00000   0.00002   2.08714
   A55        2.07381   0.00002   0.00004   0.00002   0.00007   2.07387
   A56        2.10918  -0.00002  -0.00003  -0.00006  -0.00009   2.10909
   A57        2.10020  -0.00000  -0.00001   0.00003   0.00002   2.10022
   A58        2.11331  -0.00003  -0.00013  -0.00002  -0.00016   2.11315
   A59        2.08493   0.00001   0.00006  -0.00001   0.00005   2.08497
   A60        2.08482   0.00002   0.00008   0.00003   0.00011   2.08493
   A61        2.11492  -0.00003   0.00009  -0.00003   0.00006   2.11498
   A62        2.08476   0.00001  -0.00004   0.00001  -0.00004   2.08472
   A63        2.08349   0.00002  -0.00005   0.00002  -0.00002   2.08346
   A64        2.17988   0.00008  -0.00001  -0.00001  -0.00002   2.17987
   A65        2.19031  -0.00005   0.00086   0.00006   0.00093   2.19124
   A66        1.89059  -0.00002  -0.00015   0.00004  -0.00011   1.89047
   A67        2.22931   0.00005   0.00028  -0.00001   0.00027   2.22958
   A68        1.91559  -0.00000   0.00000  -0.00003  -0.00003   1.91556
   A69        2.13818  -0.00004  -0.00027   0.00004  -0.00023   2.13795
   A70        2.23335  -0.00002   0.00001   0.00005   0.00006   2.23341
   A71        1.91399   0.00001  -0.00010  -0.00001  -0.00011   1.91388
   A72        2.13547   0.00000   0.00012  -0.00005   0.00008   2.13554
   A73        2.04481   0.00001   0.00023  -0.00002   0.00020   2.04501
   A74        2.10446   0.00001  -0.00032   0.00004  -0.00028   2.10418
   A75        2.13387  -0.00001   0.00009  -0.00002   0.00008   2.13394
   A76        1.85070   0.00001   0.00015   0.00003   0.00018   1.85088
   A77        2.08193   0.00004   0.00002   0.00001   0.00002   2.08196
   A78        2.35050  -0.00005  -0.00016  -0.00004  -0.00020   2.35030
   A79        2.04636   0.00001  -0.00004   0.00002  -0.00002   2.04634
   A80        2.10148  -0.00002   0.00028  -0.00007   0.00021   2.10169
   A81        2.13531   0.00002  -0.00024   0.00005  -0.00019   2.13512
   A82        1.85245  -0.00001   0.00006  -0.00005   0.00001   1.85246
   A83        2.08302   0.00001  -0.00009   0.00003  -0.00006   2.08296
   A84        2.34757   0.00000   0.00005   0.00002   0.00006   2.34764
   A85        2.11195   0.00001   0.00001   0.00000   0.00002   2.11197
   A86        2.08298  -0.00001   0.00009  -0.00005   0.00004   2.08302
   A87        2.08823   0.00001  -0.00010   0.00005  -0.00005   2.08818
   A88        2.07238   0.00001   0.00012  -0.00000   0.00011   2.07250
   A89        2.11196  -0.00000  -0.00010   0.00001  -0.00008   2.11188
   A90        2.09884  -0.00001  -0.00002  -0.00001  -0.00003   2.09881
   A91        2.11339  -0.00002   0.00001  -0.00000   0.00000   2.11339
   A92        2.08214   0.00001  -0.00012   0.00001  -0.00011   2.08203
   A93        2.08763   0.00001   0.00011  -0.00000   0.00011   2.08774
   A94        2.07205  -0.00001   0.00012  -0.00003   0.00009   2.07213
   A95        2.11057   0.00001  -0.00002   0.00005   0.00003   2.11060
   A96        2.10054  -0.00001  -0.00009  -0.00003  -0.00012   2.10042
   A97        2.11695  -0.00002  -0.00011  -0.00002  -0.00013   2.11682
   A98        2.08471   0.00001   0.00002   0.00005   0.00007   2.08478
   A99        2.08152   0.00000   0.00009  -0.00003   0.00006   2.08158
   A100       2.11563   0.00001  -0.00013   0.00002  -0.00011   2.11552
   A101       2.08463   0.00000   0.00010   0.00001   0.00011   2.08474
   A102       2.08288  -0.00001   0.00003  -0.00003   0.00000   2.08288
   A103       2.08484   0.00001   0.00003  -0.00001   0.00002   2.08486
   A104       2.08678  -0.00003   0.00008  -0.00005   0.00003   2.08682
   A105       2.10967   0.00002  -0.00027   0.00006  -0.00021   2.10946
   A106       2.08338  -0.00002   0.00011  -0.00004   0.00007   2.08344
   A107       2.08285   0.00003   0.00000   0.00007   0.00008   2.08292
   A108       2.11669  -0.00001  -0.00012  -0.00004  -0.00016   2.11653
   A109       2.08306  -0.00001   0.00014  -0.00004   0.00010   2.08317
   A110       2.08464   0.00000  -0.00017  -0.00002  -0.00019   2.08445
   A111       2.11528   0.00001   0.00004   0.00005   0.00009   2.11537
   A112       2.09748  -0.00000   0.00005  -0.00000   0.00005   2.09753
   A113       2.09003   0.00000  -0.00004   0.00001  -0.00003   2.09000
   A114       2.09563   0.00000  -0.00002  -0.00001  -0.00002   2.09560
   A115       2.09799  -0.00000   0.00009  -0.00001   0.00008   2.09807
   A116       2.08966   0.00000  -0.00003   0.00001  -0.00001   2.08965
   A117       2.09550   0.00000  -0.00007  -0.00000  -0.00007   2.09543
   A118       2.09476   0.00001  -0.00012   0.00003  -0.00009   2.09467
   A119       2.09434  -0.00001   0.00008  -0.00002   0.00005   2.09439
   A120       2.09403  -0.00000   0.00004  -0.00000   0.00004   2.09407
    D1       -0.08906   0.00005   0.01384  -0.00008   0.01376  -0.07530
    D2        3.13006   0.00003   0.01269  -0.00005   0.01263  -3.14049
    D3       -2.89860  -0.00005  -0.03591   0.00002  -0.03590  -2.93449
    D4        0.32052  -0.00007  -0.03707   0.00006  -0.03702   0.28350
    D5        0.07874  -0.00007  -0.01256  -0.00008  -0.01263   0.06612
    D6       -3.06721  -0.00006  -0.01064   0.00024  -0.01039  -3.07760
    D7        2.86629   0.00010   0.04057  -0.00016   0.04040   2.90669
    D8       -0.27967   0.00012   0.04248   0.00015   0.04264  -0.23703
    D9        1.41473   0.00013   0.02939   0.00026   0.02957   1.44430
   D10       -1.47427   0.00008   0.02540  -0.00022   0.02510  -1.44917
   D11       -1.38003   0.00001  -0.02224   0.00030  -0.02185  -1.40189
   D12        2.01415  -0.00004  -0.02623  -0.00018  -0.02632   1.98783
   D13        0.05986   0.00001  -0.00622   0.00019  -0.00606   0.05380
   D14       -3.09070  -0.00005  -0.00669  -0.00011  -0.00681  -3.09752
   D15        3.11929   0.00004  -0.00491   0.00013  -0.00479   3.11449
   D16       -0.03128  -0.00002  -0.00538  -0.00017  -0.00555  -0.03683
   D17       -1.41296  -0.00010   0.02495   0.00014   0.02508  -1.38788
   D18        1.40596  -0.00010   0.02726  -0.00014   0.02712   1.43308
   D19        1.80598  -0.00012   0.02380   0.00019   0.02399   1.82997
   D20       -1.65829  -0.00012   0.02611  -0.00008   0.02603  -1.63226
   D21       -0.02066  -0.00005  -0.00266  -0.00016  -0.00283  -0.02350
   D22       -2.98447  -0.00006   0.00798  -0.00002   0.00797  -2.97650
   D23        3.12984   0.00001  -0.00220   0.00013  -0.00208   3.12776
   D24        0.16604  -0.00000   0.00844   0.00028   0.00872   0.17476
   D25        0.01270   0.00002   0.00369   0.00001   0.00372   0.01641
   D26        3.12750   0.00002   0.00362  -0.00009   0.00355   3.13104
   D27        2.97395   0.00004  -0.00722  -0.00012  -0.00734   2.96660
   D28       -0.19444   0.00004  -0.00729  -0.00023  -0.00751  -0.20195
   D29       -0.49136   0.00000  -0.00947   0.00007  -0.00939  -0.50075
   D30       -2.82460   0.00003  -0.00979  -0.00003  -0.00982  -2.83442
   D31        1.48014   0.00003  -0.00991   0.00007  -0.00984   1.47030
   D32        2.82957  -0.00002   0.00125   0.00020   0.00145   2.83101
   D33        0.49633   0.00000   0.00093   0.00009   0.00103   0.49735
   D34       -1.48212   0.00000   0.00081   0.00019   0.00100  -1.48112
   D35       -0.04283   0.00004   0.00418   0.00011   0.00432  -0.03851
   D36        3.10317   0.00002   0.00225  -0.00020   0.00205   3.10523
   D37        3.12605   0.00004   0.00426   0.00022   0.00449   3.13054
   D38       -0.01113   0.00003   0.00232  -0.00010   0.00223  -0.00891
   D39       -1.55495  -0.00000   0.00332  -0.00002   0.00331  -1.55165
   D40        1.52125   0.00001   0.00055   0.00010   0.00066   1.52191
   D41        0.44889  -0.00000   0.00302   0.00008   0.00309   0.45198
   D42       -2.75810   0.00001   0.00024   0.00020   0.00044  -2.75766
   D43        2.71759  -0.00001   0.00332  -0.00006   0.00326   2.72085
   D44       -0.48940   0.00000   0.00055   0.00006   0.00061  -0.48879
   D45       -0.32666  -0.00001   0.00045  -0.00005   0.00040  -0.32626
   D46        2.81260   0.00001   0.00162  -0.00017   0.00145   2.81405
   D47        3.09790  -0.00002  -0.00158   0.00021  -0.00137   3.09654
   D48       -0.04602   0.00000  -0.00042   0.00010  -0.00032  -0.04634
   D49        0.29826  -0.00002  -0.00143   0.00023  -0.00120   0.29706
   D50       -2.82625  -0.00001  -0.00122   0.00007  -0.00114  -2.82739
   D51       -3.11786  -0.00002   0.00054   0.00004   0.00057  -3.11729
   D52        0.04082   0.00000   0.00075  -0.00012   0.00063   0.04144
   D53        3.10210   0.00003   0.00192   0.00020   0.00212   3.10422
   D54       -0.06278   0.00002   0.00196   0.00018   0.00214  -0.06064
   D55       -0.03689   0.00000   0.00062   0.00033   0.00095  -0.03594
   D56        3.08142  -0.00001   0.00066   0.00030   0.00096   3.08238
   D57        0.03296  -0.00000  -0.00007  -0.00004  -0.00012   0.03285
   D58       -3.10334  -0.00001  -0.00132   0.00001  -0.00131  -3.10465
   D59       -3.11080   0.00002   0.00101  -0.00015   0.00086  -3.10994
   D60        0.03609   0.00001  -0.00024  -0.00009  -0.00034   0.03575
   D61       -3.12437   0.00001   0.00081  -0.00019   0.00062  -3.12375
   D62        0.03311   0.00001   0.00137   0.00001   0.00138   0.03448
   D63       -0.00186  -0.00001   0.00057  -0.00001   0.00056  -0.00129
   D64       -3.12757  -0.00001   0.00114   0.00018   0.00132  -3.12625
   D65       -0.01981  -0.00001  -0.00077   0.00009  -0.00069  -0.02050
   D66        3.11461  -0.00000  -0.00100   0.00001  -0.00099   3.11363
   D67        3.13773   0.00001  -0.00058  -0.00006  -0.00064   3.13708
   D68       -0.01103   0.00001  -0.00081  -0.00013  -0.00094  -0.01198
   D69        0.00981  -0.00001  -0.00054  -0.00032  -0.00086   0.00895
   D70       -3.13245  -0.00001  -0.00017  -0.00028  -0.00045  -3.13290
   D71       -3.10813  -0.00000  -0.00059  -0.00029  -0.00088  -3.10901
   D72        0.03279  -0.00000  -0.00022  -0.00025  -0.00047   0.03232
   D73       -0.00795   0.00001   0.00050  -0.00003   0.00048  -0.00747
   D74       -3.14076   0.00000   0.00078   0.00006   0.00084  -3.13992
   D75        3.12718   0.00001   0.00203  -0.00009   0.00194   3.12912
   D76       -0.00563   0.00001   0.00231  -0.00000   0.00231  -0.00333
   D77       -0.00707  -0.00002  -0.00022  -0.00016  -0.00038  -0.00745
   D78        3.13052   0.00000   0.00041   0.00004   0.00046   3.13098
   D79       -3.14155  -0.00002  -0.00191  -0.00008  -0.00199   3.13965
   D80       -0.00395  -0.00000  -0.00127   0.00012  -0.00115  -0.00511
   D81        0.01276  -0.00000   0.00011   0.00008   0.00019   0.01296
   D82       -3.13005   0.00000  -0.00008   0.00015   0.00007  -3.12998
   D83        3.13820   0.00000  -0.00046  -0.00012  -0.00058   3.13762
   D84       -0.00461   0.00001  -0.00065  -0.00005  -0.00070  -0.00531
   D85        0.01280  -0.00001   0.00033   0.00021   0.00055   0.01335
   D86       -3.13105  -0.00000   0.00056  -0.00002   0.00055  -3.13050
   D87       -3.13846  -0.00000   0.00003   0.00011   0.00014  -3.13831
   D88        0.00088  -0.00000   0.00026  -0.00012   0.00014   0.00102
   D89        0.01807   0.00001   0.00009   0.00008   0.00017   0.01824
   D90       -3.14108  -0.00000   0.00023  -0.00004   0.00019  -3.14089
   D91       -3.12286   0.00001  -0.00028   0.00004  -0.00024  -3.12310
   D92        0.00117  -0.00000  -0.00014  -0.00008  -0.00021   0.00096
   D93       -0.01919   0.00001   0.00030   0.00017   0.00047  -0.01873
   D94        3.13996   0.00002   0.00016   0.00028   0.00044   3.14040
   D95        3.12638  -0.00001  -0.00033  -0.00003  -0.00036   3.12602
   D96        0.00235  -0.00000  -0.00047   0.00008  -0.00039   0.00196
   D97       -0.01106   0.00000  -0.00057  -0.00000  -0.00057  -0.01164
   D98        3.13644   0.00000  -0.00029  -0.00008  -0.00037   3.13608
   D99        3.13175   0.00000  -0.00038  -0.00007  -0.00045   3.13130
   D100      -0.00392  -0.00000  -0.00010  -0.00015  -0.00025  -0.00417
   D101      -0.00220  -0.00000   0.00033  -0.00015   0.00018  -0.00202
   D102       3.13348   0.00000   0.00005  -0.00007  -0.00002   3.13346
   D103      -3.14155  -0.00000   0.00010   0.00008   0.00018  -3.14137
   D104      -0.00587   0.00000  -0.00018   0.00016  -0.00002  -0.00589
   D105       0.24429  -0.00001  -0.00238  -0.00012  -0.00250   0.24179
   D106      -2.88213  -0.00003  -0.00273  -0.00011  -0.00284  -2.88497
   D107      -3.11332   0.00003   0.00115   0.00030   0.00145  -3.11187
   D108       0.04345   0.00001   0.00080   0.00030   0.00111   0.04456
   D109      -0.24150   0.00004   0.00157   0.00007   0.00164  -0.23986
   D110       2.87077   0.00004   0.00270   0.00006   0.00276   2.87353
   D111       3.11773  -0.00002  -0.00186  -0.00034  -0.00219   3.11553
   D112      -0.05319  -0.00002  -0.00073  -0.00034  -0.00107  -0.05426
   D113      -3.12753  -0.00003  -0.00007   0.00002  -0.00004  -3.12758
   D114       0.02514  -0.00003   0.00038  -0.00015   0.00023   0.02537
   D115      -0.00287  -0.00001   0.00032   0.00002   0.00034  -0.00253
   D116      -3.13339  -0.00000   0.00077  -0.00015   0.00062  -3.13278
   D117      -0.01715   0.00000  -0.00057  -0.00014  -0.00071  -0.01786
   D118       3.11501   0.00002  -0.00013   0.00004  -0.00010   3.11492
   D119       3.13868  -0.00002  -0.00090  -0.00014  -0.00104   3.13764
   D120      -0.01235  -0.00000  -0.00046   0.00004  -0.00042  -0.01277
   D121       3.08161  -0.00000   0.00110  -0.00013   0.00097   3.08258
   D122      -0.06872   0.00002   0.00022   0.00024   0.00046  -0.06826
   D123      -0.02729  -0.00001  -0.00015  -0.00013  -0.00028  -0.02757
   D124       3.10557   0.00001  -0.00103   0.00025  -0.00079   3.10478
   D125       0.04174   0.00002   0.00037   0.00025   0.00062   0.04235
   D126      -3.08376   0.00001  -0.00059   0.00018  -0.00041  -3.08417
   D127      -3.12723   0.00002   0.00142   0.00024   0.00166  -3.12556
   D128       0.03046   0.00001   0.00046   0.00018   0.00063   0.03110
   D129       0.01477   0.00001  -0.00000  -0.00007  -0.00007   0.01469
   D130      -3.13271   0.00000   0.00021  -0.00005   0.00015  -3.13256
   D131      -3.13810   0.00000  -0.00046   0.00010  -0.00036  -3.13846
   D132      -0.00239   0.00000  -0.00025   0.00012  -0.00013  -0.00253
   D133      -0.01475  -0.00001   0.00011  -0.00006   0.00005  -0.01470
   D134       3.10716   0.00000   0.00129   0.00002   0.00131   3.10847
   D135       3.13841  -0.00003  -0.00043  -0.00028  -0.00071   3.13770
   D136      -0.02286  -0.00001   0.00075  -0.00020   0.00055  -0.02232
   D137       0.01538   0.00001   0.00027  -0.00005   0.00022   0.01560
   D138      -3.12787  -0.00000   0.00012  -0.00011   0.00001  -3.12787
   D139      -3.13896   0.00003   0.00086   0.00019   0.00106  -3.13790
   D140       0.00097   0.00002   0.00071   0.00013   0.00084   0.00182
   D141       0.00357   0.00000  -0.00028  -0.00004  -0.00032   0.00325
   D142      -3.12992   0.00001  -0.00032   0.00016  -0.00016  -3.13008
   D143      -3.12911  -0.00002   0.00062  -0.00042   0.00020  -3.12891
   D144       0.02059  -0.00001   0.00058  -0.00022   0.00036   0.02095
   D145      -0.00899  -0.00000  -0.00032  -0.00006  -0.00038  -0.00937
   D146       3.12413  -0.00000   0.00021  -0.00011   0.00010   3.12424
   D147      -3.12890  -0.00002  -0.00162  -0.00015  -0.00177  -3.13067
   D148       0.00422  -0.00002  -0.00109  -0.00019  -0.00128   0.00294
   D149      -0.01181   0.00000  -0.00018   0.00006  -0.00011  -0.01192
   D150       3.13309  -0.00000   0.00005   0.00004   0.00010   3.13318
   D151       3.13569   0.00000  -0.00039   0.00005  -0.00034   3.13535
   D152      -0.00260   0.00000  -0.00016   0.00003  -0.00013  -0.00273
   D153      -0.00381  -0.00001   0.00004  -0.00000   0.00004  -0.00377
   D154       3.13448  -0.00001  -0.00019   0.00002  -0.00017   3.13431
   D155       3.13943   0.00000   0.00019   0.00006   0.00025   3.13968
   D156      -0.00546   0.00001  -0.00004   0.00008   0.00004  -0.00542
   D157       0.01708   0.00001   0.00040   0.00016   0.00056   0.01764
   D158      -3.13425   0.00000   0.00016   0.00010   0.00026  -3.13399
   D159      -3.13265  -0.00000   0.00045  -0.00004   0.00040  -3.13224
   D160      -0.00079  -0.00000   0.00020  -0.00010   0.00010  -0.00069
   D161      -0.01406  -0.00000  -0.00009  -0.00010  -0.00019  -0.01425
   D162       3.13726  -0.00000   0.00015  -0.00004   0.00011   3.13737
   D163       3.13596  -0.00001  -0.00062  -0.00006  -0.00068   3.13528
   D164       0.00409  -0.00001  -0.00038   0.00000  -0.00038   0.00371
   D165       3.07007   0.00001  -0.00269   0.00012  -0.00257   3.06750
   D166      -0.09653   0.00001  -0.00308   0.00003  -0.00305  -0.09958
   D167      -0.00526   0.00000   0.00010   0.00001   0.00011  -0.00515
   D168       3.11133  -0.00000  -0.00029  -0.00009  -0.00038   3.11096
   D169      -3.06993  -0.00002   0.00249  -0.00011   0.00238  -3.06755
   D170       0.09272  -0.00001   0.00239  -0.00015   0.00224   0.09496
   D171       0.00532  -0.00000  -0.00031   0.00001  -0.00030   0.00502
   D172      -3.11521  -0.00000  -0.00041  -0.00003  -0.00044  -3.11565
   D173      -0.00103  -0.00000   0.00006   0.00002   0.00008  -0.00095
   D174       3.12930  -0.00001  -0.00041  -0.00015  -0.00056   3.12874
   D175      -3.11713   0.00000   0.00046   0.00011   0.00057  -3.11655
   D176       0.01321  -0.00000  -0.00001  -0.00005  -0.00007   0.01314
   D177       0.00091   0.00000   0.00035  -0.00005   0.00030   0.00121
   D178      -3.13215   0.00000   0.00031  -0.00000   0.00031  -3.13183
   D179       3.12106  -0.00000   0.00045  -0.00001   0.00044   3.12150
   D180      -0.01200  -0.00000   0.00041   0.00004   0.00046  -0.01154
   D181       0.00720  -0.00000  -0.00002  -0.00006  -0.00008   0.00712
   D182       3.13781  -0.00000  -0.00019  -0.00014  -0.00033   3.13747
   D183      -3.12310   0.00000   0.00045   0.00011   0.00056  -3.12254
   D184       0.00751   0.00000   0.00028   0.00003   0.00031   0.00782
   D185      -0.00714   0.00000  -0.00019   0.00008  -0.00011  -0.00725
   D186      -3.13775   0.00000  -0.00002   0.00016   0.00014  -3.13761
   D187       3.12589  -0.00000  -0.00015   0.00003  -0.00013   3.12577
   D188      -0.00472   0.00000   0.00002   0.00011   0.00013  -0.00459
         Item               Value     Threshold  Converged?
 Maximum Force            0.000535     0.000450     NO 
 RMS     Force            0.000048     0.000300     YES
 Maximum Displacement     0.169368     0.001800     NO 
 RMS     Displacement     0.041561     0.001200     NO 
 Predicted change in Energy=-5.700230D-08
 Lowest energy point so far.  Saving SCF results.
 GradGradGradGradGradGradGradGradGradGradGradGradGradGradGradGradGradGrad

 Leave Link  103 at Sat Aug 17 01:00:26 2024, MaxMem=  2147483648 cpu:             175.8 elap:              29.9
 (Enter /apps/gaussian/g16/l202.exe)
 Stoichiometry    C36H24N2O2S
 Framework group  C1[X(C36H24N2O2S)]
 Deg. of freedom   189
 Full point group                 C1      NOp   1
 RotChk:  IX=2 Diff= 1.32D-02
 Largest Abelian subgroup         C1      NOp   1
 Largest concise Abelian subgroup C1      NOp   1
                         Standard orientation:                         
 ---------------------------------------------------------------------
 Center     Atomic      Atomic             Coordinates (Angstroms)
 Number     Number       Type             X           Y           Z
 ---------------------------------------------------------------------
      1          6           0        0.062994   -0.766851    1.048517
      2          6           0        0.414941   -0.483900   -0.313337
      3          6           0        1.637725   -0.805846   -0.827064
      4          6           0        2.568297   -1.500587   -0.006298
      5          6           0        2.217869   -1.823127    1.349146
      6          6           0        0.990026   -1.486382    1.855554
      7         16           0        4.198023   -1.692354   -0.561487
      8          8           0        4.191173   -1.711946   -2.031561
      9          1           0        1.897327   -0.546398   -1.847294
     10          1           0        2.935026   -2.361545    1.957483
     11          1           0        0.716309   -1.761269    2.868965
     12          7           0       -0.562532    0.247633   -1.077883
     13          6           0       -1.699311   -0.284303   -1.662995
     14          6           0       -0.695149    1.622140   -1.027416
     15          6           0       -1.974788   -1.619423   -1.959259
     16          6           0       -2.615397    0.758328   -1.944202
     17          6           0        0.221500    2.557941   -0.543403
     18          6           0       -1.963003    1.994408   -1.538746
     19          6           0       -3.221442   -1.905926   -2.511717
     20          1           0       -1.233302   -2.388513   -1.782966
     21          6           0       -3.851660    0.446938   -2.496487
     22          6           0       -0.157619    3.898998   -0.581381
     23          1           0        1.189168    2.241621   -0.171837
     24          6           0       -2.322514    3.335313   -1.550671
     25          6           0       -4.151013   -0.892451   -2.767269
     26          1           0       -3.472315   -2.934089   -2.746845
     27          1           0       -4.575508    1.225824   -2.712420
     28          6           0       -1.410969    4.282720   -1.070098
     29          1           0        0.532332    4.655604   -0.224180
     30          1           0       -3.290787    3.648204   -1.926778
     31          1           0       -5.113424   -1.147455   -3.197353
     32          1           0       -1.679626    5.333463   -1.082342
     33          7           0       -1.320743   -0.624809    1.395194
     34          6           0       -2.292899   -1.585924    1.181908
     35          6           0       -1.948620    0.562106    1.729459
     36          6           0       -2.108099   -2.931007    0.857449
     37          6           0       -3.578005   -1.006324    1.321638
     38          6           0       -1.357780    1.783912    2.055250
     39          6           0       -3.353982    0.392601    1.664815
     40          6           0       -3.254674   -3.705756    0.673719
     41          1           0       -1.110578   -3.343650    0.766436
     42          6           0       -4.701078   -1.790739    1.116471
     43          6           0       -2.209076    2.862475    2.287383
     44          1           0       -0.281511    1.869737    2.128827
     45          6           0       -4.180989    1.481026    1.896326
     46          6           0       -4.528268   -3.145591    0.793761
     47          1           0       -3.152091   -4.757010    0.429024
     48          1           0       -5.698224   -1.372570    1.203726
     49          6           0       -3.596689    2.718635    2.199797
     50          1           0       -1.785154    3.829528    2.532256
     51          1           0       -5.259911    1.383978    1.837639
     52          1           0       -5.401848   -3.769111    0.638050
     53          1           0       -4.234100    3.577597    2.378801
     54          8           0        4.837305   -2.765711    0.211148
     55          6           0        5.040233   -0.169234   -0.093612
     56          6           0        5.036310    0.914694   -0.972268
     57          6           0        5.615722   -0.061947    1.172581
     58          6           0        5.610203    2.119509   -0.573436
     59          1           0        4.607742    0.795527   -1.961211
     60          6           0        6.187354    1.146728    1.562591
     61          1           0        5.627360   -0.925973    1.827422
     62          6           0        6.181867    2.238634    0.693933
     63          1           0        5.621203    2.963027   -1.256501
     64          1           0        6.644855    1.234207    2.542907
     65          1           0        6.631673    3.177677    1.000282
 ---------------------------------------------------------------------
 Rotational constants (GHZ):           0.1482253           0.0662485           0.0582055
 Leave Link  202 at Sat Aug 17 01:00:27 2024, MaxMem=  2147483648 cpu:               0.7 elap:               0.1
 (Enter /apps/gaussian/g16/l301.exe)
 Standard basis: 6-31G(d,p) (6D, 7F)
 Ernie: Thresh=  0.10000D-02 Tol=  0.10000D-05 Strict=F.
 There are   739 symmetry adapted cartesian basis functions of A   symmetry.
 There are   739 symmetry adapted basis functions of A   symmetry.
   739 basis functions,  1340 primitive gaussians,   739 cartesian basis functions
   143 alpha electrons      143 beta electrons
       nuclear repulsion energy      4876.0662804861 Hartrees.
 IExCor= 4639 DFT=T Ex+Corr=wB97XD ExCW=0 ScaHFX=  1.000000
 ScaDFX=  1.000000  1.000000  1.000000  1.000000 ScalE2=  1.000000  1.000000
 IRadAn=      5 IRanWt=     -1 IRanGd=            0 ICorTp=0 IEmpDi=121
 HFx  wShort=  0.000000 wLong=  0.136000 cFull=  0.222036 cShort=  0.000000 cLong=  0.777964
 DFx  wShort=  0.000000 wLong=  0.136000 cFull=  0.000000 cShort=  0.000000 cLong=  1.000000
 NAtoms=   65 NActive=   65 NUniq=   65 SFac= 1.00D+00 NAtFMM=   60 NAOKFM=T Big=T
 Integral buffers will be    131072 words long.
 Raffenetti 1 integral format.
 Two-electron integral symmetry is turned on.
 R6Disp:  Grimme-D2 Dispersion energy=       -0.0703059728 Hartrees.
 Nuclear repulsion after empirical dispersion term =     4875.9959745133 Hartrees.
 Leave Link  301 at Sat Aug 17 01:00:28 2024, MaxMem=  2147483648 cpu:               1.1 elap:               0.2
 (Enter /apps/gaussian/g16/l302.exe)
 NPDir=0 NMtPBC=     1 NCelOv=     1 NCel=       1 NClECP=     1 NCelD=      1
         NCelK=      1 NCelE2=     1 NClLst=     1 CellRange=     0.0.
 One-electron integrals computed using PRISM.
 One-electron integral symmetry used in STVInt
 NBasis=   739 RedAO= T EigKep=  2.77D-04  NBF=   739
 NBsUse=   739 1.00D-06 EigRej= -1.00D+00 NBFU=   739
 Precomputing XC quadrature grid using
 IXCGrd= 4 IRadAn=           5 IRanWt=          -1 IRanGd=           0 AccXCQ= 0.00D+00.
 Generated NRdTot=       0 NPtTot=           0 NUsed=           0 NTot=          32
 NSgBfM=   730   730   730   730   730 MxSgAt=    65 MxSgA2=    65.
 Leave Link  302 at Sat Aug 17 01:00:35 2024, MaxMem=  2147483648 cpu:              57.5 elap:               6.5
 (Enter /apps/gaussian/g16/l303.exe)
 DipDrv:  MaxL=1.
 Leave Link  303 at Sat Aug 17 01:00:35 2024, MaxMem=  2147483648 cpu:               1.8 elap:               0.3
 (Enter /apps/gaussian/g16/l308.exe)
 Leave Link  308 at Sat Aug 17 01:00:36 2024, MaxMem=  2147483648 cpu:               2.0 elap:               0.3
 (Enter /apps/gaussian/g16/l401.exe)
 Initial guess from the checkpoint file:  "YZ-VIII-195.chk"
 B after Tr=    -0.000000    0.000000    0.000000
         Rot=    0.999992    0.000839   -0.000648    0.003840 Ang=   0.46 deg.
 Guess basis will be translated and rotated to current coordinates.
 JPrj=2 DoOrth=T DoCkMO=T.
 Generating alternative initial guess.
 ExpMin= 1.17D-01 ExpMax= 2.19D+04 ExpMxC= 3.30D+03 IAcc=3 IRadAn=         5 AccDes= 0.00D+00
 Harris functional with IExCor= 4639 and IRadAn=       5 diagonalized for initial guess.
 HarFok:  IExCor= 4639 AccDes= 0.00D+00 IRadAn=         5 IDoV= 1 UseB2=F ITyADJ=14
 ICtDFT=  3500011 ScaDFX=  1.000000  1.000000  1.000000  1.000000
 FoFCou: FMM=F IPFlag=           0 FMFlag=      100000 FMFlg1=        2001
         NFxFlg=           0 DoJE=T BraDBF=F KetDBF=T FulRan=T
         wScrn=  0.000000 ICntrl=       500 IOpCl=  0 I1Cent=   200000004 NGrid=           0
         NMat0=    1 NMatS0=      1 NMatT0=    0 NMatD0=    1 NMtDS0=    0 NMtDT0=    0
 Petite list used in FoFCou.
 Harris En= -1972.36072182315    
 Leave Link  401 at Sat Aug 17 01:00:47 2024, MaxMem=  2147483648 cpu:             101.0 elap:              11.1
 (Enter /apps/gaussian/g16/l502.exe)
 Integral symmetry usage will be decided dynamically.
 Closed shell SCF:
 Using DIIS extrapolation, IDIIS=  1040.
 NGot=  2147483648 LenX=  2146370496 LenY=  2145823636
 Requested convergence on RMS density matrix=1.00D-08 within 128 cycles.
 Requested convergence on MAX density matrix=1.00D-06.
 Requested convergence on             energy=1.00D-06.
 No special actions if energy rises.
 Fock matrices will be formed incrementally for  20 cycles.
 Integral accuracy reduced to 1.0D-05 until final iterations.

 Cycle   1  Pass 0  IDiag  1:
 FoFJK:  IHMeth= 1 ICntrl=       0 DoSepK=T KAlg= 0 I1Cent=           0 FoldK=F
 IRaf=         1 NMat=       1 IRICut=       1 DoRegI=T DoRafI=F ISym2E= 0 IDoP0=0 IntGTp=1.
 FoFCou: FMM=T IPFlag=           0 FMFlag=      100000 FMFlg1=        2001
         NFxFlg=           0 DoJE=T BraDBF=F KetDBF=F FulRan=T
         wScrn=  0.000000 ICntrl=       500 IOpCl=  0 I1Cent=           0 NGrid=           0
         NMat0=    1 NMatS0=      1 NMatT0=    0 NMatD0=    1 NMtDS0=    0 NMtDT0=    0
 Symmetry not used in FoFCou.
 FMM levels:  10  Number of levels for PrismC:   9
 E= -2044.00115374900    
 DIIS: error= 1.59D-03 at cycle   1 NSaved=   1.
 NSaved= 1 IEnMin= 1 EnMin= -2044.00115374900     IErMin= 1 ErrMin= 1.59D-03
 ErrMax= 1.59D-03  0.00D+00 EMaxC= 1.00D-01 BMatC= 2.27D-03 BMatP= 2.27D-03
 IDIUse=3 WtCom= 9.84D-01 WtEn= 1.59D-02
 Coeff-Com:  0.100D+01
 Coeff-En:   0.100D+01
 Coeff:      0.100D+01
 Gap=     1.725 Goal=   None    Shift=    0.000
 GapD=    1.725 DampG=2.000 DampE=1.000 DampFc=2.0000 IDamp=-1.
 RMSDP=1.35D-04 MaxDP=3.22D-03              OVMax= 8.13D-03

 Cycle   2  Pass 0  IDiag  1:
 RMSU=  1.35D-04    CP:  1.00D+00
 E= -2044.00492394571     Delta-E=       -0.003770196710 Rises=F Damp=F
 DIIS: error= 2.62D-04 at cycle   2 NSaved=   2.
 NSaved= 2 IEnMin= 2 EnMin= -2044.00492394571     IErMin= 2 ErrMin= 2.62D-04
 ErrMax= 2.62D-04  0.00D+00 EMaxC= 1.00D-01 BMatC= 6.46D-05 BMatP= 2.27D-03
 IDIUse=3 WtCom= 9.97D-01 WtEn= 2.62D-03
 Coeff-Com: -0.163D+00 0.116D+01
 Coeff-En:   0.000D+00 0.100D+01
 Coeff:     -0.162D+00 0.116D+01
 Gap=     0.213 Goal=   None    Shift=    0.000
 RMSDP=2.69D-05 MaxDP=1.08D-03 DE=-3.77D-03 OVMax= 2.80D-03

 Cycle   3  Pass 0  IDiag  1:
 RMSU=  2.03D-05    CP:  1.00D+00  1.13D+00
 E= -2044.00508635843     Delta-E=       -0.000162412720 Rises=F Damp=F
 DIIS: error= 7.38D-05 at cycle   3 NSaved=   3.
 NSaved= 3 IEnMin= 3 EnMin= -2044.00508635843     IErMin= 3 ErrMin= 7.38D-05
 ErrMax= 7.38D-05  0.00D+00 EMaxC= 1.00D-01 BMatC= 8.55D-06 BMatP= 6.46D-05
 IDIUse=1 WtCom= 1.00D+00 WtEn= 0.00D+00
 Coeff-Com: -0.604D-01 0.380D+00 0.680D+00
 Coeff:     -0.604D-01 0.380D+00 0.680D+00
 Gap=     0.213 Goal=   None    Shift=    0.000
 RMSDP=7.78D-06 MaxDP=3.72D-04 DE=-1.62D-04 OVMax= 8.47D-04

 Initial convergence to 1.0D-05 achieved.  Increase integral accuracy.
 Cycle   4  Pass 1  IDiag  1:
 E= -2044.00519550900     Delta-E=       -0.000109150568 Rises=F Damp=F
 DIIS: error= 2.21D-04 at cycle   1 NSaved=   1.
 NSaved= 1 IEnMin= 1 EnMin= -2044.00519550900     IErMin= 1 ErrMin= 2.21D-04
 ErrMax= 2.21D-04  0.00D+00 EMaxC= 1.00D-01 BMatC= 2.42D-05 BMatP= 2.42D-05
 IDIUse=3 WtCom= 9.98D-01 WtEn= 2.21D-03
 Coeff-Com:  0.100D+01
 Coeff-En:   0.100D+01
 Coeff:      0.100D+01
 Gap=     0.213 Goal=   None    Shift=    0.000
 RMSDP=7.78D-06 MaxDP=3.72D-04 DE=-1.09D-04 OVMax= 9.06D-04

 Cycle   5  Pass 1  IDiag  1:
 RMSU=  9.69D-05    CP:  1.00D+00
 E= -2044.00520887700     Delta-E=       -0.000013368004 Rises=F Damp=F
 DIIS: error= 7.05D-05 at cycle   2 NSaved=   2.
 NSaved= 2 IEnMin= 2 EnMin= -2044.00520887700     IErMin= 2 ErrMin= 7.05D-05
 ErrMax= 7.05D-05  0.00D+00 EMaxC= 1.00D-01 BMatC= 7.46D-06 BMatP= 2.42D-05
 IDIUse=1 WtCom= 1.00D+00 WtEn= 0.00D+00
 Coeff-Com:  0.286D+00 0.714D+00
 Coeff:      0.286D+00 0.714D+00
 Gap=     0.213 Goal=   None    Shift=    0.000
 RMSDP=8.75D-06 MaxDP=4.03D-04 DE=-1.34D-05 OVMax= 9.59D-04

 Cycle   6  Pass 1  IDiag  1:
 RMSU=  8.24D-06    CP:  1.00D+00  1.03D+00
 E= -2044.00521059458     Delta-E=       -0.000001717580 Rises=F Damp=F
 DIIS: error= 6.72D-05 at cycle   3 NSaved=   3.
 NSaved= 3 IEnMin= 3 EnMin= -2044.00521059458     IErMin= 3 ErrMin= 6.72D-05
 ErrMax= 6.72D-05  0.00D+00 EMaxC= 1.00D-01 BMatC= 5.90D-06 BMatP= 7.46D-06
 IDIUse=1 WtCom= 1.00D+00 WtEn= 0.00D+00
 Coeff-Com: -0.158D-01 0.473D+00 0.543D+00
 Coeff:     -0.158D-01 0.473D+00 0.543D+00
 Gap=     0.213 Goal=   None    Shift=    0.000
 RMSDP=4.30D-06 MaxDP=2.45D-04 DE=-1.72D-06 OVMax= 5.00D-04

 Cycle   7  Pass 1  IDiag  1:
 RMSU=  1.34D-06    CP:  1.00D+00  1.05D+00  5.44D-01
 E= -2044.00521648050     Delta-E=       -0.000005885918 Rises=F Damp=F
 DIIS: error= 1.23D-05 at cycle   4 NSaved=   4.
 NSaved= 4 IEnMin= 4 EnMin= -2044.00521648050     IErMin= 4 ErrMin= 1.23D-05
 ErrMax= 1.23D-05  0.00D+00 EMaxC= 1.00D-01 BMatC= 1.71D-07 BMatP= 5.90D-06
 IDIUse=1 WtCom= 1.00D+00 WtEn= 0.00D+00
 Coeff-Com: -0.155D-01 0.261D+00 0.318D+00 0.436D+00
 Coeff:     -0.155D-01 0.261D+00 0.318D+00 0.436D+00
 Gap=     0.213 Goal=   None    Shift=    0.000
 RMSDP=6.77D-07 MaxDP=4.18D-05 DE=-5.89D-06 OVMax= 8.67D-05

 Cycle   8  Pass 1  IDiag  1:
 RMSU=  4.81D-07    CP:  1.00D+00  1.05D+00  5.65D-01  6.75D-01
 E= -2044.00521665743     Delta-E=       -0.000000176931 Rises=F Damp=F
 DIIS: error= 1.43D-06 at cycle   5 NSaved=   5.
 NSaved= 5 IEnMin= 5 EnMin= -2044.00521665743     IErMin= 5 ErrMin= 1.43D-06
 ErrMax= 1.43D-06  0.00D+00 EMaxC= 1.00D-01 BMatC= 2.46D-09 BMatP= 1.71D-07
 IDIUse=1 WtCom= 1.00D+00 WtEn= 0.00D+00
 Coeff-Com:  0.557D-03-0.311D-01-0.334D-01 0.297D-01 0.103D+01
 Coeff:      0.557D-03-0.311D-01-0.334D-01 0.297D-01 0.103D+01
 Gap=     0.213 Goal=   None    Shift=    0.000
 RMSDP=2.12D-07 MaxDP=9.82D-06 DE=-1.77D-07 OVMax= 5.75D-05

 Cycle   9  Pass 1  IDiag  1:
 RMSU=  1.53D-07    CP:  1.00D+00  1.05D+00  5.68D-01  7.65D-01  1.14D+00
 E= -2044.00521666427     Delta-E=       -0.000000006842 Rises=F Damp=F
 DIIS: error= 8.56D-07 at cycle   6 NSaved=   6.
 NSaved= 6 IEnMin= 6 EnMin= -2044.00521666427     IErMin= 6 ErrMin= 8.56D-07
 ErrMax= 8.56D-07  0.00D+00 EMaxC= 1.00D-01 BMatC= 1.35D-09 BMatP= 2.46D-09
 IDIUse=1 WtCom= 1.00D+00 WtEn= 0.00D+00
 Coeff-Com:  0.258D-02-0.555D-01-0.650D-01-0.480D-01 0.565D+00 0.601D+00
 Coeff:      0.258D-02-0.555D-01-0.650D-01-0.480D-01 0.565D+00 0.601D+00
 Gap=     0.213 Goal=   None    Shift=    0.000
 RMSDP=8.47D-08 MaxDP=3.69D-06 DE=-6.84D-09 OVMax= 2.18D-05

 Cycle  10  Pass 1  IDiag  1:
 RMSU=  6.88D-08    CP:  1.00D+00  1.05D+00  5.68D-01  7.80D-01  1.23D+00
                    CP:  9.54D-01
 E= -2044.00521666624     Delta-E=       -0.000000001968 Rises=F Damp=F
 DIIS: error= 2.51D-07 at cycle   7 NSaved=   7.
 NSaved= 7 IEnMin= 7 EnMin= -2044.00521666624     IErMin= 7 ErrMin= 2.51D-07
 ErrMax= 2.51D-07  0.00D+00 EMaxC= 1.00D-01 BMatC= 6.67D-11 BMatP= 1.35D-09
 IDIUse=1 WtCom= 1.00D+00 WtEn= 0.00D+00
 Coeff-Com:  0.626D-03-0.114D-01-0.136D-01-0.162D-01 0.362D-01 0.165D+00
 Coeff-Com:  0.839D+00
 Coeff:      0.626D-03-0.114D-01-0.136D-01-0.162D-01 0.362D-01 0.165D+00
 Coeff:      0.839D+00
 Gap=     0.213 Goal=   None    Shift=    0.000
 RMSDP=3.28D-08 MaxDP=1.83D-06 DE=-1.97D-09 OVMax= 1.14D-05

 Cycle  11  Pass 1  IDiag  1:
 RMSU=  1.97D-08    CP:  1.00D+00  1.05D+00  5.68D-01  7.85D-01  1.25D+00
                    CP:  1.09D+00  1.14D+00
 E= -2044.00521666652     Delta-E=       -0.000000000275 Rises=F Damp=F
 DIIS: error= 1.91D-07 at cycle   8 NSaved=   8.
 NSaved= 8 IEnMin= 8 EnMin= -2044.00521666652     IErMin= 8 ErrMin= 1.91D-07
 ErrMax= 1.91D-07  0.00D+00 EMaxC= 1.00D-01 BMatC= 3.41D-11 BMatP= 6.67D-11
 IDIUse=1 WtCom= 1.00D+00 WtEn= 0.00D+00
 Coeff-Com: -0.149D-03 0.440D-02 0.502D-02-0.123D-03-0.933D-01-0.226D-01
 Coeff-Com:  0.496D+00 0.611D+00
 Coeff:     -0.149D-03 0.440D-02 0.502D-02-0.123D-03-0.933D-01-0.226D-01
 Coeff:      0.496D+00 0.611D+00
 Gap=     0.213 Goal=   None    Shift=    0.000
 RMSDP=1.58D-08 MaxDP=8.76D-07 DE=-2.75D-10 OVMax= 5.18D-06

 Cycle  12  Pass 1  IDiag  1:
 RMSU=  9.22D-09    CP:  1.00D+00  1.05D+00  5.68D-01  7.87D-01  1.26D+00
                    CP:  1.14D+00  1.26D+00  8.24D-01
 E= -2044.00521666661     Delta-E=       -0.000000000094 Rises=F Damp=F
 DIIS: error= 5.48D-08 at cycle   9 NSaved=   9.
 NSaved= 9 IEnMin= 9 EnMin= -2044.00521666661     IErMin= 9 ErrMin= 5.48D-08
 ErrMax= 5.48D-08  0.00D+00 EMaxC= 1.00D-01 BMatC= 2.26D-12 BMatP= 3.41D-11
 IDIUse=1 WtCom= 1.00D+00 WtEn= 0.00D+00
 Coeff-Com: -0.137D-03 0.311D-02 0.362D-02 0.212D-02-0.378D-01-0.302D-01
 Coeff-Com:  0.580D-01 0.214D+00 0.787D+00
 Coeff:     -0.137D-03 0.311D-02 0.362D-02 0.212D-02-0.378D-01-0.302D-01
 Coeff:      0.580D-01 0.214D+00 0.787D+00
 Gap=     0.213 Goal=   None    Shift=    0.000
 RMSDP=6.18D-09 MaxDP=3.35D-07 DE=-9.37D-11 OVMax= 2.31D-06

 SCF Done:  E(RwB97XD) =  -2044.00521667     A.U. after   12 cycles
            NFock= 12  Conv=0.62D-08     -V/T= 2.0082
 KE= 2.027397956437D+03 PE=-1.451515594230D+04 EE= 5.567756794682D+03
 Leave Link  502 at Sat Aug 17 01:06:55 2024, MaxMem=  2147483648 cpu:            2348.3 elap:             367.6
 (Enter /apps/gaussian/g16/l801.exe)
 DoSCS=F DFT=T ScalE2(SS,OS)=  1.000000  1.000000
 ExpMin= 1.17D-01 ExpMax= 2.19D+04 ExpMxC= 3.30D+03 IAcc=3 IRadAn=         5 AccDes= 0.00D+00
 HarFok:  IExCor=  205 AccDes= 0.00D+00 IRadAn=         5 IDoV=-2 UseB2=F ITyADJ=14
 ICtDFT= 12500011 ScaDFX=  1.000000  1.000000  1.000000  1.000000
 GSVD:  LWork=       -2385 too small for GESVD, short by       10800 words or       10800 for optimal perf.
 Largest valence mixing into a core orbital is  1.64D-04
 Largest core mixing into a valence orbital is  3.43D-05
 Range of M.O.s used for correlation:    46   739
 NBasis=   739 NAE=   143 NBE=   143 NFC=    45 NFV=     0
 NROrb=    694 NOA=    98 NOB=    98 NVA=   596 NVB=   596
 Leave Link  801 at Sat Aug 17 01:06:59 2024, MaxMem=  2147483648 cpu:              20.7 elap:               3.2
 (Enter /apps/gaussian/g16/l914.exe)
 RHF ground state
 Two-electron integrals replicated using symmetry.
 MDV=  2147483648 DFT=T DoStab=F Mixed=T DoRPA=F DoScal=F NonHer=F
 Making orbital integer symmetry assigments:
 Orbital symmetries:
       Occupied  (A) (A) (A) (A) (A) (A) (A) (A) (A) (A) (A) (A)
                 (A) (A) (A) (A) (A) (A) (A) (A) (A) (A) (A) (A)
                 (A) (A) (A) (A) (A) (A) (A) (A) (A) (A) (A) (A)
                 (A) (A) (A) (A) (A) (A) (A) (A) (A) (A) (A) (A)
                 (A) (A) (A) (A) (A) (A) (A) (A) (A) (A) (A) (A)
                 (A) (A) (A) (A) (A) (A) (A) (A) (A) (A) (A) (A)
                 (A) (A) (A) (A) (A) (A) (A) (A) (A) (A) (A) (A)
                 (A) (A) (A) (A) (A) (A) (A) (A) (A) (A) (A) (A)
                 (A) (A) (A) (A) (A) (A) (A) (A) (A) (A) (A) (A)
                 (A) (A) (A) (A) (A) (A) (A) (A) (A) (A) (A) (A)
                 (A) (A) (A) (A) (A) (A) (A) (A) (A) (A) (A) (A)
                 (A) (A) (A) (A) (A) (A) (A) (A) (A) (A) (A)
       Virtual   (A) (A) (A) (A) (A) (A) (A) (A) (A) (A) (A) (A)
                 (A) (A) (A) (A) (A) (A) (A) (A) (A) (A) (A) (A)
                 (A) (A) (A) (A) (A) (A) (A) (A) (A) (A) (A) (A)
                 (A) (A) (A) (A) (A) (A) (A) (A) (A) (A) (A) (A)
                 (A) (A) (A) (A) (A) (A) (A) (A) (A) (A) (A) (A)
                 (A) (A) (A) (A) (A) (A) (A) (A) (A) (A) (A) (A)
                 (A) (A) (A) (A) (A) (A) (A) (A) (A) (A) (A) (A)
                 (A) (A) (A) (A) (A) (A) (A) (A) (A) (A) (A) (A)
                 (A) (A) (A) (A) (A) (A) (A) (A) (A) (A) (A) (A)
                 (A) (A) (A) (A) (A) (A) (A) (A) (A) (A) (A) (A)
                 (A) (A) (A) (A) (A) (A) (A) (A) (A) (A) (A) (A)
                 (A) (A) (A) (A) (A) (A) (A) (A) (A) (A) (A) (A)
                 (A) (A) (A) (A) (A) (A) (A) (A) (A) (A) (A) (A)
                 (A) (A) (A) (A) (A) (A) (A) (A) (A) (A) (A) (A)
                 (A) (A) (A) (A) (A) (A) (A) (A) (A) (A) (A) (A)
                 (A) (A) (A) (A) (A) (A) (A) (A) (A) (A) (A) (A)
                 (A) (A) (A) (A) (A) (A) (A) (A) (A) (A) (A) (A)
                 (A) (A) (A) (A) (A) (A) (A) (A) (A) (A) (A) (A)
                 (A) (A) (A) (A) (A) (A) (A) (A) (A) (A) (A) (A)
                 (A) (A) (A) (A) (A) (A) (A) (A) (A) (A) (A) (A)
                 (A) (A) (A) (A) (A) (A) (A) (A) (A) (A) (A) (A)
                 (A) (A) (A) (A) (A) (A) (A) (A) (A) (A) (A) (A)
                 (A) (A) (A) (A) (A) (A) (A) (A) (A) (A) (A) (A)
                 (A) (A) (A) (A) (A) (A) (A) (A) (A) (A) (A) (A)
                 (A) (A) (A) (A) (A) (A) (A) (A) (A) (A) (A) (A)
                 (A) (A) (A) (A) (A) (A) (A) (A) (A) (A) (A) (A)
                 (A) (A) (A) (A) (A) (A) (A) (A) (A) (A) (A) (A)
                 (A) (A) (A) (A) (A) (A) (A) (A) (A) (A) (A) (A)
                 (A) (A) (A) (A) (A) (A) (A) (A) (A) (A) (A) (A)
                 (A) (A) (A) (A) (A) (A) (A) (A) (A) (A) (A) (A)
                 (A) (A) (A) (A) (A) (A) (A) (A) (A) (A) (A) (A)
                 (A) (A) (A) (A) (A) (A) (A) (A) (A) (A) (A) (A)
                 (A) (A) (A) (A) (A) (A) (A) (A) (A) (A) (A) (A)
                 (A) (A) (A) (A) (A) (A) (A) (A) (A) (A) (A) (A)
                 (A) (A) (A) (A) (A) (A) (A) (A) (A) (A) (A) (A)
                 (A) (A) (A) (A) (A) (A) (A) (A) (A) (A) (A) (A)
                 (A) (A) (A) (A) (A) (A) (A) (A) (A) (A) (A) (A)
                 (A) (A) (A) (A) (A) (A) (A) (A) (A) (A) (A) (A)
                 (A) (A) (A) (A) (A) (A) (A) (A) (A) (A) (A) (A)
                 (A) (A) (A) (A) (A) (A) (A) (A) (A) (A) (A) (A)
                 (A) (A) (A) (A) (A) (A) (A) (A) (A) (A) (A) (A)
                 (A) (A) (A) (A) (A) (A) (A) (A) (A) (A) (A) (A)
                 (A) (A) (A) (A) (A) (A) (A) (A) (A) (A) (A) (A)
                 (A) (A) (A) (A) (A) (A) (A) (A) (A) (A) (A) (A)
                 (A) (A) (A) (A) (A) (A) (A) (A) (A) (A) (A) (A)
                 (A) (A) (A) (A) (A) (A) (A) (A) (A) (A) (A) (A)
                 (A) (A) (A) (A) (A) (A) (A) (A) (A) (A) (A) (A)
                 (A) (A) (A) (A) (A) (A) (A) (A) (A) (A) (A) (A)
                 (A) (A) (A) (A) (A) (A) (A) (A) (A) (A) (A) (A)
                 (A) (A) (A) (A) (A) (A) (A) (A)
 Generating guess from densities on rwf.
 Convergence on wavefunction:    0.000001000000000
 Davidson Disk Diagonalization:  ConvIn= 1.00D-06 SkipCon=T Conv= 1.00D-06.
 Max sub-space:  2000 roots to seek:     4 dimension of matrix:       116816
 Iteration     1 Dimension     4 NMult     0 NNew      4
 CISAX will form     4 AO SS matrices at one time.
 NMat=     4 NSing=     4 JSym2X= 0.
 FoFJK:  IHMeth= 1 ICntrl=       0 DoSepK=T KAlg= 0 I1Cent=           0 FoldK=F
 IRaf=         1 NMat=       8 IRICut=       1 DoRegI=T DoRafI=F ISym2E= 0 IDoP0=0 IntGTp=1.
 FoFCou: FMM=T IPFlag=           0 FMFlag=      100000 FMFlg1=        2001
         NFxFlg=           0 DoJE=F BraDBF=F KetDBF=F FulRan=T
         wScrn=  0.000000 ICntrl=       500 IOpCl=  0 I1Cent=           0 NGrid=           0
         NMat0=    4 NMatS0=      4 NMatT0=    0 NMatD0=    4 NMtDS0=    0 NMtDT0=    0
 Symmetry not used in FoFCou.
 FMM levels:  10  Number of levels for PrismC:   9
 Excitation Energies [eV] at current iteration:
 Root      1 :     2.949379233688838
 Root      2 :     3.368163701337247
 Root      3 :     3.668394949051663
 Root      4 :     3.909724009670235
 Iteration     2 Dimension     8 NMult     4 NNew      4
 CISAX will form     4 AO SS matrices at one time.
 NMat=     4 NSing=     4 JSym2X= 0.
 Root      1 not converged, maximum delta is    0.003936823556978
 Root      2 not converged, maximum delta is    0.003851400681722
 Root      3 not converged, maximum delta is    0.003921821086020
 Root      4 not converged, maximum delta is    0.004035310770307
 Excitation Energies [eV] at current iteration:
 Root      1 :     2.945843340706449   Change is   -0.003535892982389
 Root      2 :     3.364473095325214   Change is   -0.003690606012033
 Root      3 :     3.664567016017558   Change is   -0.003827933034105
 Root      4 :     3.906041152032436   Change is   -0.003682857637799
 Iteration     3 Dimension    12 NMult     8 NNew      4
 CISAX will form     4 AO SS matrices at one time.
 NMat=     4 NSing=     4 JSym2X= 0.
 Root      1 not converged, maximum delta is    0.001025714604122
 Root      2 not converged, maximum delta is    0.001099223584456
 Root      3 not converged, maximum delta is    0.001230691393267
 Root      4 not converged, maximum delta is    0.001196856750128
 Excitation Energies [eV] at current iteration:
 Root      1 :     2.945687091526864   Change is   -0.000156249179585
 Root      2 :     3.364286333628939   Change is   -0.000186761696275
 Root      3 :     3.664444403095425   Change is   -0.000122612922133
 Root      4 :     3.905925135313327   Change is   -0.000116016719110
 Iteration     4 Dimension    16 NMult    12 NNew      4
 CISAX will form     4 AO SS matrices at one time.
 NMat=     4 NSing=     4 JSym2X= 0.
 Root      1 not converged, maximum delta is    0.000660169100266
 Root      2 not converged, maximum delta is    0.001086813565141
 Root      3 not converged, maximum delta is    0.000502384204653
 Root      4 not converged, maximum delta is    0.000413247617139
 Excitation Energies [eV] at current iteration:
 Root      1 :     2.945661157550695   Change is   -0.000025933976169
 Root      2 :     3.364244424399565   Change is   -0.000041909229374
 Root      3 :     3.664430677137602   Change is   -0.000013725957823
 Root      4 :     3.905914893276099   Change is   -0.000010242037227
 Iteration     5 Dimension    20 NMult    16 NNew      4
 CISAX will form     4 AO SS matrices at one time.
 NMat=     4 NSing=     4 JSym2X= 0.
 Root      1 not converged, maximum delta is    0.000237933494402
 Root      2 not converged, maximum delta is    0.000493074943016
 Root      3 not converged, maximum delta is    0.000678495327424
 Root      4 not converged, maximum delta is    0.000405928428725
 Excitation Energies [eV] at current iteration:
 Root      1 :     2.945657034373194   Change is   -0.000004123177501
 Root      2 :     3.364233455590865   Change is   -0.000010968808700
 Root      3 :     3.664424052236934   Change is   -0.000006624900668
 Root      4 :     3.905909570719490   Change is   -0.000005322556609
 Iteration     6 Dimension    24 NMult    20 NNew      4
 CISAX will form     4 AO SS matrices at one time.
 NMat=     4 NSing=     4 JSym2X= 0.
 Root      1 not converged, maximum delta is    0.000224074723024
 Root      2 not converged, maximum delta is    0.000282813568884
 Root      3 not converged, maximum delta is    0.000330382957232
 Root      4 not converged, maximum delta is    0.000192885186857
 Excitation Energies [eV] at current iteration:
 Root      1 :     2.945655630567143   Change is   -0.000001403806051
 Root      2 :     3.364230428700606   Change is   -0.000003026890259
 Root      3 :     3.664422319744805   Change is   -0.000001732492130
 Root      4 :     3.905908115723422   Change is   -0.000001454996068
 Iteration     7 Dimension    28 NMult    24 NNew      4
 CISAX will form     4 AO SS matrices at one time.
 NMat=     4 NSing=     4 JSym2X= 0.
 Root      1 not converged, maximum delta is    0.000143209391685
 Root      2 not converged, maximum delta is    0.000237063219197
 Root      3 not converged, maximum delta is    0.000141572127537
 Root      4 not converged, maximum delta is    0.000113746819273
 Excitation Energies [eV] at current iteration:
 Root      1 :     2.945655342472803   Change is   -0.000000288094339
 Root      2 :     3.364229655628048   Change is   -0.000000773072558
 Root      3 :     3.664421790731430   Change is   -0.000000529013374
 Root      4 :     3.905907693043039   Change is   -0.000000422680383
 Iteration     8 Dimension    32 NMult    28 NNew      4
 CISAX will form     4 AO SS matrices at one time.
 NMat=     4 NSing=     4 JSym2X= 0.
 Root      1 not converged, maximum delta is    0.000058565912335
 Root      2 not converged, maximum delta is    0.000138379769825
 Root      3 not converged, maximum delta is    0.000057810939212
 Root      4 not converged, maximum delta is    0.000127472772692
 Excitation Energies [eV] at current iteration:
 Root      1 :     2.945655279305196   Change is   -0.000000063167608
 Root      2 :     3.364229480654949   Change is   -0.000000174973099
 Root      3 :     3.664421697359364   Change is   -0.000000093372066
 Root      4 :     3.905907445716264   Change is   -0.000000247326774
 Iteration     9 Dimension    36 NMult    32 NNew      4
 CISAX will form     4 AO SS matrices at one time.
 NMat=     4 NSing=     4 JSym2X= 0.
 Root      1 not converged, maximum delta is    0.000031672648571
 Root      2 not converged, maximum delta is    0.000103834957096
 Root      3 not converged, maximum delta is    0.000034522896384
 Root      4 not converged, maximum delta is    0.000182492695422
 Excitation Energies [eV] at current iteration:
 Root      1 :     2.945655262323800   Change is   -0.000000016981396
 Root      2 :     3.364229408739299   Change is   -0.000000071915650
 Root      3 :     3.664421670253756   Change is   -0.000000027105608
 Root      4 :     3.905907292986571   Change is   -0.000000152729693
 Iteration    10 Dimension    40 NMult    36 NNew      4
 CISAX will form     4 AO SS matrices at one time.
 NMat=     4 NSing=     4 JSym2X= 0.
 Root      1 not converged, maximum delta is    0.000005191641046
 Root      2 not converged, maximum delta is    0.000030982330159
 Root      3 not converged, maximum delta is    0.000015680838907
 Root      4 not converged, maximum delta is    0.000156871240645
 Excitation Energies [eV] at current iteration:
 Root      1 :     2.945655260375046   Change is   -0.000000001948754
 Root      2 :     3.364229395352838   Change is   -0.000000013386461
 Root      3 :     3.664421663128072   Change is   -0.000000007125684
 Root      4 :     3.905907206230112   Change is   -0.000000086756460
 Iteration    11 Dimension    44 NMult    40 NNew      4
 CISAX will form     4 AO SS matrices at one time.
 NMat=     4 NSing=     4 JSym2X= 0.
 Root      1 not converged, maximum delta is    0.000001719410958
 Root      2 not converged, maximum delta is    0.000012428430513
 Root      3 not converged, maximum delta is    0.000007032159713
 Root      4 not converged, maximum delta is    0.000110597259662
 Excitation Energies [eV] at current iteration:
 Root      1 :     2.945655260021514   Change is   -0.000000000353532
 Root      2 :     3.364229391679676   Change is   -0.000000003673163
 Root      3 :     3.664421661364226   Change is   -0.000000001763846
 Root      4 :     3.905907170973124   Change is   -0.000000035256988
 Iteration    12 Dimension    48 NMult    44 NNew      4
 CISAX will form     4 AO SS matrices at one time.
 NMat=     4 NSing=     4 JSym2X= 0.
 Root      1 not converged, maximum delta is    0.000001001033085
 Root      2 not converged, maximum delta is    0.000004859181259
 Root      3 not converged, maximum delta is    0.000005463637613
 Root      4 not converged, maximum delta is    0.000078218714487
 Excitation Energies [eV] at current iteration:
 Root      1 :     2.945655259975866   Change is   -0.000000000045648
 Root      2 :     3.364229390816520   Change is   -0.000000000863156
 Root      3 :     3.664421660757825   Change is   -0.000000000606401
 Root      4 :     3.905907152255398   Change is   -0.000000018717726
 Iteration    13 Dimension    52 NMult    48 NNew      4
 CISAX will form     4 AO SS matrices at one time.
 NMat=     4 NSing=     4 JSym2X= 0.
 Root      1 not converged, maximum delta is    0.000001018079349
 Root      2 not converged, maximum delta is    0.000002059469737
 Root      3 not converged, maximum delta is    0.000002696130444
 Root      4 not converged, maximum delta is    0.000042182785481
 Excitation Energies [eV] at current iteration:
 Root      1 :     2.945655259964507   Change is   -0.000000000011359
 Root      2 :     3.364229390635533   Change is   -0.000000000180986
 Root      3 :     3.664421660584162   Change is   -0.000000000173663
 Root      4 :     3.905907145112523   Change is   -0.000000007142874
 Iteration    14 Dimension    56 NMult    52 NNew      4
 CISAX will form     4 AO SS matrices at one time.
 NMat=     4 NSing=     4 JSym2X= 0.
 Root      1 not converged, maximum delta is    0.000001015311521
 Root      2 not converged, maximum delta is    0.000001190958319
 Root      3 not converged, maximum delta is    0.000001305161307
 Root      4 not converged, maximum delta is    0.000020962228770
 Excitation Energies [eV] at current iteration:
 Root      1 :     2.945655259958175   Change is   -0.000000000006332
 Root      2 :     3.364229390586477   Change is   -0.000000000049056
 Root      3 :     3.664421660520925   Change is   -0.000000000063237
 Root      4 :     3.905907142051285   Change is   -0.000000003061239
 Iteration    15 Dimension    60 NMult    56 NNew      4
 CISAX will form     4 AO SS matrices at one time.
 NMat=     4 NSing=     4 JSym2X= 0.
 Root      1 not converged, maximum delta is    0.000001013922166
 Root      2 not converged, maximum delta is    0.000001003809533
 Root      3 not converged, maximum delta is    0.000001014647393
 Root      4 not converged, maximum delta is    0.000009181658471
 Excitation Energies [eV] at current iteration:
 Root      1 :     2.945655259953480   Change is   -0.000000000004695
 Root      2 :     3.364229390568212   Change is   -0.000000000018265
 Root      3 :     3.664421660497692   Change is   -0.000000000023232
 Root      4 :     3.905907140939742   Change is   -0.000000001111543
 Iteration    16 Dimension    64 NMult    60 NNew      4
 CISAX will form     4 AO SS matrices at one time.
 NMat=     4 NSing=     4 JSym2X= 0.
 Root      1 has converged.
 Root      2 not converged, maximum delta is    0.000001000313962
 Root      3 not converged, maximum delta is    0.000001005575556
 Root      4 not converged, maximum delta is    0.000003407967893
 Excitation Energies [eV] at current iteration:
 Root      1 :     2.945655259949523   Change is   -0.000000000003958
 Root      2 :     3.364229390558453   Change is   -0.000000000009758
 Root      3 :     3.664421660487675   Change is   -0.000000000010018
 Root      4 :     3.905907140575141   Change is   -0.000000000364601
 Iteration    17 Dimension    67 NMult    64 NNew      3
 CISAX will form     3 AO SS matrices at one time.
 NMat=     3 NSing=     3 JSym2X= 0.
 Root      1 has converged.
 Root      2 has converged.
 Root      3 not converged, maximum delta is    0.000001000096672
 Root      4 not converged, maximum delta is    0.000001245444819
 Excitation Energies [eV] at current iteration:
 Root      1 :     2.945655259949227   Change is   -0.000000000000296
 Root      2 :     3.364229390551874   Change is   -0.000000000006580
 Root      3 :     3.664421660482587   Change is   -0.000000000005087
 Root      4 :     3.905907140475833   Change is   -0.000000000099309
 Iteration    18 Dimension    69 NMult    67 NNew      2
 CISAX will form     2 AO SS matrices at one time.
 NMat=     2 NSing=     2 JSym2X= 0.
 Root      1 has converged.
 Root      2 has converged.
 Root      3 not converged, maximum delta is    0.000001000241803
 Root      4 not converged, maximum delta is    0.000001000394195
 Excitation Energies [eV] at current iteration:
 Root      1 :     2.945655259949136   Change is   -0.000000000000091
 Root      2 :     3.364229390551807   Change is   -0.000000000000066
 Root      3 :     3.664421660477946   Change is   -0.000000000004640
 Root      4 :     3.905907140444516   Change is   -0.000000000031316
 Iteration    19 Dimension    71 NMult    69 NNew      2
 CISAX will form     2 AO SS matrices at one time.
 NMat=     2 NSing=     2 JSym2X= 0.
 Root      1 has converged.
 Root      2 has converged.
 Root      3 not converged, maximum delta is    0.000001011824506
 Root      4 not converged, maximum delta is    0.000001015482762
 Excitation Energies [eV] at current iteration:
 Root      1 :     2.945655259949069   Change is   -0.000000000000066
 Root      2 :     3.364229390551801   Change is   -0.000000000000006
 Root      3 :     3.664421660472485   Change is   -0.000000000005462
 Root      4 :     3.905907140428535   Change is   -0.000000000015981
 Iteration    20 Dimension    73 NMult    71 NNew      2
 CISAX will form     2 AO SS matrices at one time.
 NMat=     2 NSing=     2 JSym2X= 0.
 Root      1 has converged.
 Root      2 has converged.
 Root      3 not converged, maximum delta is    0.000001000601696
 Root      4 not converged, maximum delta is    0.000001000097148
 Excitation Energies [eV] at current iteration:
 Root      1 :     2.945655259949027   Change is   -0.000000000000042
 Root      2 :     3.364229390551753   Change is   -0.000000000000048
 Root      3 :     3.664421660468654   Change is   -0.000000000003831
 Root      4 :     3.905907140418324   Change is   -0.000000000010211
 Iteration    21 Dimension    75 NMult    73 NNew      2
 CISAX will form     2 AO SS matrices at one time.
 NMat=     2 NSing=     2 JSym2X= 0.
 Root      1 has converged.
 Root      2 has converged.
 Root      3 not converged, maximum delta is    0.000001000118223
 Root      4 not converged, maximum delta is    0.000001000640805
 Excitation Energies [eV] at current iteration:
 Root      1 :     2.945655259949015   Change is   -0.000000000000012
 Root      2 :     3.364229390551723   Change is   -0.000000000000030
 Root      3 :     3.664421660466286   Change is   -0.000000000002369
 Root      4 :     3.905907140411526   Change is   -0.000000000006797
 Iteration    22 Dimension    77 NMult    75 NNew      2
 CISAX will form     2 AO SS matrices at one time.
 NMat=     2 NSing=     2 JSym2X= 0.
 Root      1 has converged.
 Root      2 has converged.
 Root      3 has converged.
 Root      4 has converged.
 Excitation Energies [eV] at current iteration:
 Root      1 :     2.945655259948991   Change is   -0.000000000000024
 Root      2 :     3.364229390551705   Change is   -0.000000000000018
 Root      3 :     3.664421660464340   Change is   -0.000000000001946
 Root      4 :     3.905907140406837   Change is   -0.000000000004689
 Convergence achieved on expansion vectors.
 ***********************************************************************
 Excited states from <AA,BB:AA,BB> singles matrix:
 ***********************************************************************
 
 1PDM for each excited state written to RWF  633
 Ground to excited state transition densities written to RWF  633
 Ground to excited state transition electric dipole moments (Au):
       state          X           Y           Z        Dip. S.      Osc.
         1        -0.2351      0.0115      0.1193      0.0696      0.0050
         2         0.2392     -0.0672     -0.0684      0.0664      0.0055
         3        -0.0134     -0.0012     -0.0343      0.0014      0.0001
         4         0.1422      0.0304      0.0042      0.0212      0.0020
 Ground to excited state transition velocity dipole moments (Au):
       state          X           Y           Z        Dip. S.      Osc.
         1         0.0137      0.0110      0.0094      0.0004      0.0024
         2        -0.0067     -0.0032     -0.0001      0.0001      0.0003
         3         0.0023      0.0000      0.0040      0.0000      0.0001
         4        -0.0075     -0.0019      0.0058      0.0001      0.0004
 Ground to excited state transition magnetic dipole moments (Au):
       state          X           Y           Z
         1         0.0868      0.1087      0.0566
         2        -0.2591     -0.0093     -0.0189
         3         0.0620     -0.0455      0.0228
         4        -0.0428     -0.0264     -0.0140
 Ground to excited state transition velocity quadrupole moments (Au):
       state          XX          YY          ZZ          XY          XZ          YZ
         1         0.1028     -0.0773      0.0397      0.0085      0.0555     -0.0208
         2        -0.1198      0.0303     -0.0313      0.0448     -0.0301      0.0310
         3        -0.0172     -0.0042      0.0496      0.0214     -0.0296     -0.0132
         4        -0.0569      0.0424      0.0169     -0.0032     -0.0335      0.0122
 <0|del|b> * <b|rxdel|0> + <0|del|b> * <b|delr+rdel|0>
 Rotatory Strengths (R) in cgs (10**-40 erg-esu-cm/Gauss)
       state          XX          YY          ZZ    R(velocity)    E-M Angle
         1         3.9255      4.4226     10.7179      6.3553       12.79
         2        -0.1968      4.4039      5.9472      3.3848       23.79
         3         0.4595      0.3140      0.4558      0.4097       50.63
         4        -0.2809      0.4100      1.2960      0.4750       55.05
 1/2[<0|r|b>*<b|rxdel|0> + (<0|rxdel|b>*<b|r|0>)*]
 Rotatory Strengths (R) in cgs (10**-40 erg-esu-cm/Gauss)
       state          XX          YY          ZZ     R(length)
         1        14.4379     -0.8816     -4.7734      2.9276
         2        43.8197     -0.4436     -0.9116     14.1548
         3         0.5876     -0.0380      0.5543      0.3680
         4         4.3046      0.5680      0.0412      1.6379
  1/2[<0|del|b>*<b|r|0> + (<0|r|b>*<b|del|0>)*] (Au)
[...]
 Alpha  occ. eigenvalues --   -0.95306  -0.92219  -0.91717  -0.91560  -0.91135
 Alpha  occ. eigenvalues --   -0.87650  -0.86904  -0.85375  -0.84088  -0.84021
 Alpha  occ. eigenvalues --   -0.83498  -0.82034  -0.81496  -0.79933  -0.78797
 Alpha  occ. eigenvalues --   -0.78548  -0.78326  -0.75977  -0.72468  -0.71977
 Alpha  occ. eigenvalues --   -0.69970  -0.69596  -0.69321  -0.67369  -0.67152
 Alpha  occ. eigenvalues --   -0.66900  -0.65802  -0.64137  -0.63951  -0.63665
 Alpha  occ. eigenvalues --   -0.62086  -0.60754  -0.58976  -0.58457  -0.58056
 Alpha  occ. eigenvalues --   -0.57745  -0.57601  -0.56507  -0.55770  -0.55020
 Alpha  occ. eigenvalues --   -0.54048  -0.53606  -0.52508  -0.52291  -0.51578
 Alpha  occ. eigenvalues --   -0.51528  -0.51141  -0.50990  -0.50527  -0.50461
 Alpha  occ. eigenvalues --   -0.50036  -0.49623  -0.49312  -0.49079  -0.48889
 Alpha  occ. eigenvalues --   -0.47851  -0.47757  -0.47411  -0.47287  -0.46809
 Alpha  occ. eigenvalues --   -0.46489  -0.45251  -0.45061  -0.44458  -0.42721
 Alpha  occ. eigenvalues --   -0.42530  -0.42178  -0.42043  -0.41951  -0.41837
 Alpha  occ. eigenvalues --   -0.40057  -0.39810  -0.39567  -0.39459  -0.39129
 Alpha  occ. eigenvalues --   -0.38945  -0.38838  -0.38145  -0.37557  -0.36551
 Alpha  occ. eigenvalues --   -0.35850  -0.35688  -0.35199  -0.34314  -0.33175
 Alpha  occ. eigenvalues --   -0.32709  -0.32541  -0.31578  -0.29315  -0.26866
 Alpha  occ. eigenvalues --   -0.26197  -0.26078  -0.24448
 Alpha virt. eigenvalues --   -0.03237   0.01163   0.02196   0.02325   0.03362
 Alpha virt. eigenvalues --    0.03599   0.05871   0.06702   0.08086   0.08856
 Alpha virt. eigenvalues --    0.10045   0.11124   0.11448   0.12834   0.14414
 Alpha virt. eigenvalues --    0.15048   0.16525   0.16902   0.17458   0.17788
 Alpha virt. eigenvalues --    0.18329   0.18532   0.19005   0.19659   0.20226
 Alpha virt. eigenvalues --    0.20883   0.21191   0.21367   0.21752   0.21950
 Alpha virt. eigenvalues --    0.22511   0.22615   0.22843   0.23499   0.23552
 Alpha virt. eigenvalues --    0.23762   0.24029   0.24702   0.24785   0.25405
 Alpha virt. eigenvalues --    0.26197   0.26562   0.26672   0.26814   0.27221
 Alpha virt. eigenvalues --    0.27677   0.27869   0.28070   0.29195   0.29811
 Alpha virt. eigenvalues --    0.31143   0.31483   0.32025   0.32156   0.32543
 Alpha virt. eigenvalues --    0.33162   0.33977   0.34155   0.34601   0.34834
 Alpha virt. eigenvalues --    0.35618   0.36025   0.36347   0.36774   0.37020
 Alpha virt. eigenvalues --    0.38812   0.39403   0.40185   0.40211   0.40516
 Alpha virt. eigenvalues --    0.40987   0.41535   0.42241   0.43033   0.43237
 Alpha virt. eigenvalues --    0.44910   0.45181   0.45949   0.46154   0.47810
 Alpha virt. eigenvalues --    0.48152   0.48626   0.49288   0.50526   0.51555
 Alpha virt. eigenvalues --    0.52757   0.53468   0.54010   0.55004   0.55289
 Alpha virt. eigenvalues --    0.56456   0.56848   0.57604   0.57755   0.58563
 Alpha virt. eigenvalues --    0.58709   0.58828   0.59002   0.59532   0.60117
 Alpha virt. eigenvalues --    0.60201   0.60678   0.60709   0.61211   0.61303
 Alpha virt. eigenvalues --    0.61725   0.62521   0.62739   0.62848   0.63220
 Alpha virt. eigenvalues --    0.63420   0.63782   0.63804   0.64094   0.64594
 Alpha virt. eigenvalues --    0.64732   0.64968   0.65478   0.65612   0.66051
 Alpha virt. eigenvalues --    0.66291   0.66392   0.66417   0.66826   0.67162
 Alpha virt. eigenvalues --    0.67376   0.67426   0.67661   0.67866   0.68006
 Alpha virt. eigenvalues --    0.68212   0.68362   0.68877   0.69425   0.69564
 Alpha virt. eigenvalues --    0.69859   0.70502   0.70919   0.71223   0.72132
 Alpha virt. eigenvalues --    0.72415   0.73188   0.74269   0.75356   0.75615
 Alpha virt. eigenvalues --    0.76262   0.76530   0.77254   0.78642   0.78908
 Alpha virt. eigenvalues --    0.79184   0.79885   0.81477   0.81999   0.82563
 Alpha virt. eigenvalues --    0.82688   0.83920   0.84575   0.84928   0.85696
 Alpha virt. eigenvalues --    0.85941   0.86284   0.86884   0.87515   0.87653
 Alpha virt. eigenvalues --    0.87857   0.87974   0.88086   0.88244   0.88525
 Alpha virt. eigenvalues --    0.88805   0.88935   0.89189   0.89790   0.90292
 Alpha virt. eigenvalues --    0.90478   0.90651   0.90793   0.91319   0.91932
 Alpha virt. eigenvalues --    0.91949   0.92086   0.92300   0.92655   0.93534
 Alpha virt. eigenvalues --    0.93630   0.93801   0.95151   0.95300   0.95717
 Alpha virt. eigenvalues --    0.95926   0.96227   0.96251   0.96795   0.97441
 Alpha virt. eigenvalues --    0.97797   0.98225   0.98747   0.99035   0.99452
 Alpha virt. eigenvalues --    0.99576   1.01519   1.01587   1.01985   1.02081
 Alpha virt. eigenvalues --    1.03763   1.03937   1.05873   1.06196   1.06423
 Alpha virt. eigenvalues --    1.06778   1.06825   1.08174   1.08972   1.09291
 Alpha virt. eigenvalues --    1.09994   1.10403   1.10787   1.11812   1.12462
 Alpha virt. eigenvalues --    1.12628   1.12843   1.13927   1.14324   1.15157
 Alpha virt. eigenvalues --    1.16030   1.17430   1.18344   1.18364   1.19855
 Alpha virt. eigenvalues --    1.20313   1.20998   1.21254   1.21721   1.22087
 Alpha virt. eigenvalues --    1.23307   1.24342   1.24585   1.25036   1.25285
 Alpha virt. eigenvalues --    1.25558   1.26183   1.26739   1.27421   1.27994
 Alpha virt. eigenvalues --    1.28547   1.29194   1.29857   1.30442   1.31216
 Alpha virt. eigenvalues --    1.32033   1.32483   1.33640   1.33816   1.34461
 Alpha virt. eigenvalues --    1.35607   1.36200   1.36465   1.36987   1.37476
 Alpha virt. eigenvalues --    1.38835   1.39319   1.40174   1.41493   1.41768
 Alpha virt. eigenvalues --    1.42045   1.42458   1.42927   1.43181   1.43390
 Alpha virt. eigenvalues --    1.43513   1.43689   1.43874   1.44125   1.45168
 Alpha virt. eigenvalues --    1.45904   1.46221   1.46848   1.47252   1.47445
 Alpha virt. eigenvalues --    1.47568   1.47761   1.47969   1.48378   1.48634
 Alpha virt. eigenvalues --    1.49093   1.49425   1.49638   1.49864   1.50073
 Alpha virt. eigenvalues --    1.52630   1.53321   1.55578   1.57047   1.58715
 Alpha virt. eigenvalues --    1.60197   1.63036   1.65129   1.65591   1.66404
 Alpha virt. eigenvalues --    1.67326   1.67815   1.68783   1.69032   1.71461
 Alpha virt. eigenvalues --    1.72206   1.76248   1.76651   1.77788   1.78625
 Alpha virt. eigenvalues --    1.79734   1.80029   1.81465   1.81901   1.82254
 Alpha virt. eigenvalues --    1.82929   1.83731   1.84402   1.84631   1.84907
 Alpha virt. eigenvalues --    1.85404   1.86030   1.86435   1.87521   1.88247
 Alpha virt. eigenvalues --    1.88430   1.89059   1.89399   1.90073   1.90609
 Alpha virt. eigenvalues --    1.91642   1.92124   1.92484   1.93492   1.93886
 Alpha virt. eigenvalues --    1.95028   1.95644   1.96172   1.96986   1.97212
 Alpha virt. eigenvalues --    1.97451   1.97584   1.97989   1.98614   1.98891
 Alpha virt. eigenvalues --    1.99381   1.99392   2.00229   2.00648   2.00734
 Alpha virt. eigenvalues --    2.01406   2.01980   2.02176   2.03192   2.03312
 Alpha virt. eigenvalues --    2.03433   2.03742   2.03881   2.04373   2.04568
 Alpha virt. eigenvalues --    2.04941   2.05477   2.05858   2.06328   2.06471
 Alpha virt. eigenvalues --    2.07238   2.07734   2.07919   2.08164   2.08616
 Alpha virt. eigenvalues --    2.08950   2.09250   2.10421   2.11027   2.11458
 Alpha virt. eigenvalues --    2.11763   2.12316   2.12523   2.14229   2.15053
 Alpha virt. eigenvalues --    2.15580   2.16579   2.17664   2.18055   2.19413
 Alpha virt. eigenvalues --    2.20020   2.20131   2.20649   2.21749   2.22696
 Alpha virt. eigenvalues --    2.24519   2.24995   2.26323   2.27944   2.29278
 Alpha virt. eigenvalues --    2.30137   2.30756   2.30984   2.31727   2.32759
 Alpha virt. eigenvalues --    2.33027   2.33185   2.33875   2.34675   2.35512
 Alpha virt. eigenvalues --    2.36127   2.36587   2.37444   2.39943   2.40439
 Alpha virt. eigenvalues --    2.40697   2.41051   2.41316   2.41559   2.42027
 Alpha virt. eigenvalues --    2.42404   2.42654   2.43243   2.43536   2.44402
 Alpha virt. eigenvalues --    2.44918   2.45351   2.45568   2.45817   2.46017
 Alpha virt. eigenvalues --    2.46771   2.46936   2.47388   2.47605   2.48329
 Alpha virt. eigenvalues --    2.48767   2.48955   2.50050   2.50730   2.50958
 Alpha virt. eigenvalues --    2.51286   2.51858   2.52603   2.53116   2.53366
 Alpha virt. eigenvalues --    2.54702   2.55005   2.55440   2.55870   2.56196
 Alpha virt. eigenvalues --    2.56770   2.56831   2.57492   2.57827   2.58051
 Alpha virt. eigenvalues --    2.58718   2.59704   2.60221   2.60336   2.61074
 Alpha virt. eigenvalues --    2.61900   2.62250   2.63218   2.63732   2.63796
 Alpha virt. eigenvalues --    2.64322   2.64598   2.64981   2.65234   2.66030
 Alpha virt. eigenvalues --    2.66353   2.66707   2.67239   2.67621   2.68653
 Alpha virt. eigenvalues --    2.69204   2.69641   2.70484   2.70910   2.71160
 Alpha virt. eigenvalues --    2.71988   2.73377   2.75126   2.75412   2.76462
 Alpha virt. eigenvalues --    2.76636   2.76957   2.78069   2.78561   2.79647
 Alpha virt. eigenvalues --    2.80428   2.81358   2.81598   2.81924   2.82881
 Alpha virt. eigenvalues --    2.83440   2.84423   2.84860   2.85154   2.87267
 Alpha virt. eigenvalues --    2.88397   2.90501   2.91051   2.92080   2.93443
 Alpha virt. eigenvalues --    2.95413   2.97738   2.98551   2.98923   2.99364
 Alpha virt. eigenvalues --    3.00359   3.00713   3.02024   3.02357   3.02977
 Alpha virt. eigenvalues --    3.07531   3.09652   3.10936   3.15617   3.17469
 Alpha virt. eigenvalues --    3.21280   3.22121   3.23156   3.24897   3.26388
 Alpha virt. eigenvalues --    3.26728   3.28361   3.28974   3.29931   3.30251
 Alpha virt. eigenvalues --    3.30942   3.32181   3.32389   3.32847   3.32977
 Alpha virt. eigenvalues --    3.33385   3.33863   3.36128   3.38378   3.38496
 Alpha virt. eigenvalues --    3.38690   3.44283   3.44975   3.45119   3.45371
 Alpha virt. eigenvalues --    3.45992   3.49919   3.50309   3.50832   3.54648
 Alpha virt. eigenvalues --    3.55304   3.56611   3.58561   3.59017   3.75155
 Alpha virt. eigenvalues --    3.89312   3.89644   3.90054   3.95578   3.97819
 Alpha virt. eigenvalues --    3.98147   4.12293   4.14823   4.16428   4.18679
 Alpha virt. eigenvalues --    4.19156   4.19674   4.22037   4.22762   4.23644
 Alpha virt. eigenvalues --    4.24120   4.25350   4.25804   4.26618   4.27704
 Alpha virt. eigenvalues --    4.28245   4.29818   4.32125   4.32574   4.38185
 Alpha virt. eigenvalues --    4.41038   4.43413   4.47067   4.48307   4.49191
 Alpha virt. eigenvalues --    4.51541   4.52956   4.53660   4.56131   4.57226
 Alpha virt. eigenvalues --    4.61659   4.62187   4.64837   4.66253   4.81219
 Alpha virt. eigenvalues --    4.85190   4.90468   4.92167   4.95884   5.02953
 Alpha virt. eigenvalues --    5.04148
          Condensed to atoms (all electrons):
 Mulliken charges:
               1
     1  C    0.197952
     2  C    0.199851
     3  C   -0.108680
     4  C   -0.205803
     5  C   -0.108033
     6  C   -0.141130
     7  S    1.165950
     8  O   -0.570015
     9  H    0.204116
    10  H    0.186236
    11  H    0.178556
    12  N   -0.714161
    13  C    0.294179
    14  C    0.301116
    15  C   -0.134592
    16  C    0.033759
    17  C   -0.162680
    18  C    0.041586
    19  C   -0.129018
    20  H    0.127763
    21  C   -0.168747
    22  C   -0.139732
    23  H    0.126207
    24  C   -0.160247
    25  C   -0.147866
    26  H    0.128424
    27  H    0.130560
    28  C   -0.148781
    29  H    0.124635
    30  H    0.133471
    31  H    0.123403
    32  H    0.123296
    33  N   -0.708939
    34  C    0.303780
    35  C    0.294927
    36  C   -0.157800
    37  C    0.045391
    38  C   -0.133396
    39  C    0.036463
    40  C   -0.139720
    41  H    0.128490
    42  C   -0.166055
    43  C   -0.129194
    44  H    0.121580
    45  C   -0.170392
    46  C   -0.147929
    47  H    0.128909
    48  H    0.134095
    49  C   -0.149199
    50  H    0.127129
    51  H    0.131638
    52  H    0.124422
    53  H    0.123025
    54  O   -0.568757
    55  C   -0.190603
    56  C   -0.116395
    57  C   -0.114711
    58  C   -0.132178
    59  H    0.176328
    60  C   -0.131498
    61  H    0.171247
    62  C   -0.121555
    63  H    0.151278
    64  H    0.149238
    65  H    0.148807
 Sum of Mulliken charges =  -0.00000
 Mulliken charges with hydrogens summed into heavy atoms:
               1
     1  C    0.197952
     2  C    0.199851
     3  C    0.095436
     4  C   -0.205803
     5  C    0.078203
     6  C    0.037426
     7  S    1.165950
     8  O   -0.570015
    12  N   -0.714161
    13  C    0.294179
    14  C    0.301116
    15  C   -0.006829
    16  C    0.033759
    17  C   -0.036473
    18  C    0.041586
    19  C   -0.000594
    21  C   -0.038186
    22  C   -0.015097
    24  C   -0.026776
    25  C   -0.024463
    28  C   -0.025485
    33  N   -0.708939
    34  C    0.303780
    35  C    0.294927
    36  C   -0.029310
    37  C    0.045391
    38  C   -0.011816
    39  C    0.036463
    40  C   -0.010812
    42  C   -0.031960
    43  C   -0.002065
    45  C   -0.038753
    46  C   -0.023507
    49  C   -0.026174
    54  O   -0.568757
    55  C   -0.190603
    56  C    0.059932
    57  C    0.056536
    58  C    0.019100
    60  C    0.017739
    62  C    0.027252
 Electronic spatial extent (au):  <R**2>=          19386.5968
 Charge=              0.0000 electrons
 Dipole moment (field-independent basis, Debye):
    X=             -0.3196    Y=              3.6253    Z=              3.0247  Tot=              4.7322
 Quadrupole moment (field-independent basis, Debye-Ang):
   XX=           -228.4803   YY=           -228.3255   ZZ=           -241.8904
   XY=             25.0110   XZ=             19.3568   YZ=             -2.5787
 Traceless Quadrupole moment (field-independent basis, Debye-Ang):
   XX=              4.4184   YY=              4.5732   ZZ=             -8.9917
   XY=             25.0110   XZ=             19.3568   YZ=             -2.5787
 Octapole moment (field-independent basis, Debye-Ang**2):
  XXX=            -66.1990  YYY=             40.9015  ZZZ=             16.7700  XYY=            -37.4474
  XXY=            152.7860  XXZ=             50.6433  XZZ=             45.2093  YZZ=             -2.0070
  YYZ=              5.4184  XYZ=            -27.9160
 Hexadecapole moment (field-independent basis, Debye-Ang**3):
 XXXX=         -16318.2547 YYYY=          -5776.7554 ZZZZ=          -3486.4961 XXXY=            763.1564
 XXXZ=            501.9631 YYYX=            193.0490 YYYZ=             84.5600 ZZZX=            154.6564
 ZZZY=            -16.6244 XXYY=          -3731.9522 XXZZ=          -3291.3309 YYZZ=          -1591.7426
 XXYZ=            -25.5467 YYXZ=             83.2847 ZZXY=             -3.3930
 N-N= 4.873354493296D+03 E-N=-1.450989412332D+04  KE= 2.027396996379D+03
 No NMR shielding tensors so no spin-rotation constants.
 Leave Link  601 at Sat Aug 17 14:40:26 2024, MaxMem=  2147483648 cpu:              18.0 elap:               2.8
 (Enter /apps/gaussian/g16/l9999.exe)
 Electronic transition elements 
                 1             2             3             4 
      1  -0.204390D+04 -0.204388D+04 -0.204387D+04 -0.204386D+04
      2  -0.231069D+00  0.224652D+00 -0.121875D-01  0.145023D+00
      3   0.732577D-03 -0.557470D-01  0.132988D-01  0.102667D-01
      4   0.107750D+00 -0.954930D-01 -0.344477D-01  0.187944D-01
      5   0.138499D-01 -0.609686D-02  0.207392D-02 -0.781618D-02
      6   0.465953D-02 -0.150008D-02 -0.162110D-02 -0.292529D-02
      7   0.122949D-01 -0.256332D-02  0.360630D-02  0.464599D-02
      8   0.962275D-01 -0.265080D+00  0.585183D-01 -0.445255D-01
      9   0.674125D-01  0.253868D-01 -0.596636D-01 -0.134350D-01
     10   0.811168D-01 -0.229515D-01  0.316593D-02 -0.222470D-01
     11   0.101740D+00 -0.994577D-01 -0.902564D-02 -0.555290D-01
     12  -0.426298D-01 -0.214896D-01  0.386222D-02  0.270105D-01
     13   0.120100D-01 -0.228837D-02  0.328146D-01  0.290575D-01
     14  -0.287826D-01  0.695988D-01  0.340421D-01  0.198209D-01
     15   0.402193D-01 -0.105188D-01 -0.239001D-01 -0.279878D-01
     16  -0.597622D-01  0.478422D-01 -0.255479D-01  0.223813D-01

 Test job not archived.
 1\1\GINC-PMLP-HPCCLSAP02\FOpt\RwB97XD TDA-FC\6-31G(d,p)\C36H24N2O2S1\W
 ILLIAM1\17-Aug-2024\0\\#p opt wB97XD/6-31G** iop(3/107=0136000000, 3/1
 08=0136000000) TDA=(singlets, nstates=4, root=1)\\Tuning input file ge
 nerated by xtune with parameters: w01360\\0,1\C,-0.0796995268,-1.07039
 89671,0.7263430641\C,0.3602541476,-0.3655255328,-0.4443318307\C,1.5527
 379133,-0.6389786896,-1.0493733211\C,2.352704741,-1.7007535544,-0.5454
 94927\C,1.9081013884,-2.4438508964,0.6003446258\C,0.7130752835,-2.1534
 543862,1.2044813968\S,3.9603732872,-1.9077550757,-1.1574704805\O,4.006
 7128254,-1.3877760777,-2.5318744358\H,1.8850338943,-0.0651383515,-1.90
 72213623\H,2.5246233807,-3.2576145054,0.9636944528\H,0.3641878472,-2.7
 400566066,2.0480969348\N,-0.4886573318,0.7114538864,-0.8857162579\C,-1
 .6454948368,0.5774286251,-1.6349272826\C,-0.4719450656,1.9739844618,-0
 .3237679762\C,-2.0514533434,-0.508141893,-2.4115747356\C,-2.4254564278
 ,1.7528537187,-1.5103546908\C,0.5153519099,2.544060686,0.4824978026\C,
 -1.6627653904,2.6606220828,-0.66666581\C,-3.292422751,-0.4154520388,-3
 .038006887\H,-1.4094024338,-1.371640691,-2.5321245379\C,-3.658963392,1
 .8214144383,-2.146387778\C,0.288693873,3.8386547231,0.947619815\H,1.42
 12663798,1.9968562823,0.7157254346\C,-1.8713134146,3.9433102155,-0.177
 5947854\C,-4.0902847178,0.7254320049,-2.9007716905\H,-3.6430294871,-1.
 2441249531,-3.64279107\H,-4.2803547211,2.7065601864,-2.0588447553\C,-0
 .8874771979,4.526101535,0.6294245815\H,1.0381560163,4.3184500221,1.567
 5051656\H,-2.7783306354,4.4886675491,-0.4160591474\H,-5.0517885288,0.7
 671683641,-3.4008146689\H,-1.0376377173,5.5305586724,1.0101245525\N,-1
 .4593614435,-0.9076030206,1.0844315205\C,-2.5118962523,-1.602354397,0.
 5149914515\C,-1.9791107427,0.1357574452,1.8291215716\C,-2.4483685285,-
 2.7439590049,-0.285769853\C,-3.7364047347,-0.970876292,0.8445203723\C,
 -1.2845298162,1.073833195,2.5945661447\C,-3.3889652688,0.166372434,1.6
 878474872\C,-3.6568097424,-3.2580529083,-0.7596499911\H,-1.4950358407,
 -3.205953533,-0.5122320308\C,-4.921030041,-1.4884921011,0.3476091688\C
 ,-2.0317316521,2.081644423,3.2008891705\H,-0.2108375486,1.0010591786,2
 .708001421\C,-4.1109785025,1.1805627428,2.297598568\C,-4.8707028737,-2
 .6388289137,-0.4551518652\H,-3.6492266467,-4.1487325454,-1.3778223477\
 H,-5.8732976734,-1.0198749432,0.5719844107\C,-3.4198550027,2.142168905
 2,3.0480824962\H,-1.5247766912,2.8340715273,3.793905243\H,-5.189213437
 5,1.2382491571,2.1928361576\H,-5.7938265611,-3.0552328489,-0.843209563
 9\H,-3.97441341,2.9423297052,3.5259449725\O,4.4135943155,-3.2692096735
 ,-0.8430946123\C,4.9895820218,-0.7998394343,-0.1770639754\C,5.17358637
 91,0.5175787381,-0.5979415821\C,5.5270636841,-1.2475447439,1.029760120
 6\C,5.899050793,1.3956587657,0.2036776317\H,4.7690953267,0.8315677139,
 -1.5537903202\C,6.2509986009,-0.3622834667,1.8247625831\H,5.3908589028
 ,-2.2825807893,1.322373485\C,6.4343416389,0.9591343322,1.4161264125\H,
 6.0559330591,2.418764484,-0.1231571167\H,6.6794660972,-0.7063746407,2.
 7606958194\H,7.0023486227,1.6448542744,2.0367056549\\Version=ES64L-G16
 RevC.01\State=1-A\HF=-2044.004393\RMSD=9.314e-09\RMSF=3.522e-06\Dipole
 =-4.8272703,2.5940697,1.8065429\PG=C01 [X(C36H24N2O2S1)]\\@


 MANHOOD BEGINS BY TRYING TO SHAVE FACE,
 AND ENDS BY TRYING TO SAVE FACE.
 Job cpu time:       3 days 18 hours 35 minutes 59.7 seconds.
 Elapsed time:       0 days 13 hours 40 minutes 16.6 seconds.
 File lengths (MBytes):  RWF=   2465 Int=      0 D2E=      0 Chk=    126 Scr=      1
 Normal termination of Gaussian 16 at Sat Aug 17 14:40:27 2024.
