 Entering Gaussian System, Link 0=g16
 Initial command:
 /apps/gaussian/g16/l1.exe "/local/Gau-1581095.inp" -scrdir="/local/"
 Entering Link 1 = /apps/gaussian/g16/l1.exe PID=   1581096.
  
 Copyright (c) 1988-2019, Gaussian, Inc.  All Rights Reserved.
  
 This is part of the Gaussian(R) 16 program.  It is based on
 the Gaussian(R) 09 system (copyright 2009, Gaussian, Inc.),
 the Gaussian(R) 03 system (copyright 2003, Gaussian, Inc.),
 the Gaussian(R) 98 system (copyright 1998, Gaussian, Inc.),
 the Gaussian(R) 94 system (copyright 1995, Gaussian, Inc.),
 the Gaussian 92(TM) system (copyright 1992, Gaussian, Inc.),
 the Gaussian 90(TM) system (copyright 1990, Gaussian, Inc.),
 the Gaussian 88(TM) system (copyright 1988, Gaussian, Inc.),
 the Gaussian 86(TM) system (copyright 1986, Carnegie Mellon
 University), and the Gaussian 82(TM) system (copyright 1983,
 Carnegie Mellon University). Gaussian is a federally registered
 trademark of Gaussian, Inc.
  
 This software contains proprietary and confidential information,
 including trade secrets, belonging to Gaussian, Inc.
  
 This software is provided under written license and may be
 used, copied, transmitted, or stored only in accord with that
 written license.
  
 The following legend is applicable only to US Government
 contracts under FAR:
  
                    RESTRICTED RIGHTS LEGEND
  
 Use, reproduction and disclosure by the US Government is
 subject to restrictions as set forth in subparagraphs (a)
 and (c) of the Commercial Computer Software - Restricted
 Rights clause in FAR 52.227-19.
  
 Gaussian, Inc.
 340 Quinnipiac St., Bldg. 40, Wallingford CT 06492
  
  
 ---------------------------------------------------------------
 Warning -- This program may not be used in any manner that
 competes with the business of Gaussian, Inc. or will provide
 assistance to any competitor of Gaussian, Inc.  The licensee
 of this program is prohibited from giving any competitor of
 Gaussian, Inc. access to this program.  By using this program,
 the user acknowledges that Gaussian, Inc. is engaged in the
 business of creating and licensing software in the field of
 computational chemistry and represents and warrants to the
 licensee that it is not a competitor of Gaussian, Inc. and that
 it will not use this program in any manner prohibited above.
 ---------------------------------------------------------------
  

 Cite this work as:
 Gaussian 16, Revision C.01,
 M. J. Frisch, G. W. Trucks, H. B. Schlegel, G. E. Scuseria, 
 M. A. Robb, J. R. Cheeseman, G. Scalmani, V. Barone, 
 G. A. Petersson, H. Nakatsuji, X. Li, M. Caricato, A. V. Marenich, 
 J. Bloino, B. G. Janesko, R. Gomperts, B. Mennucci, H. P. Hratchian, 
 J. V. Ortiz, A. F. Izmaylov, J. L. Sonnenberg, D. Williams-Young, 
 F. Ding, F. Lipparini, F. Egidi, J. Goings, B. Peng, A. Petrone, 
 T. Henderson, D. Ranasinghe, V. G. Zakrzewski, J. Gao, N. Rega, 
 G. Zheng, W. Liang, M. Hada, M. Ehara, K. Toyota, R. Fukuda, 
 J. Hasegawa, M. Ishida, T. Nakajima, Y. Honda, O. Kitao, H. Nakai, 
 T. Vreven, K. Throssell, J. A. Montgomery, Jr., J. E. Peralta, 
 F. Ogliaro, M. J. Bearpark, J. J. Heyd, E. N. Brothers, K. N. Kudin, 
 V. N. Staroverov, T. A. Keith, R. Kobayashi, J. Normand, 
 K. Raghavachari, A. P. Rendell, J. C. Burant, S. S. Iyengar, 
 J. Tomasi, M. Cossi, J. M. Millam, M. Klene, C. Adamo, R. Cammi, 
 J. W. Ochterski, R. L. Martin, K. Morokuma, O. Farkas, 
 J. B. Foresman, and D. J. Fox, Gaussian, Inc., Wallingford CT, 2019.
 
 ******************************************
 Gaussian 16:  ES64L-G16RevC.01  3-Jul-2019
                26-Aug-2024 
 ******************************************
 %chk=YZ-IX-171.chk
 %nprocshared=16
 Will use up to   16 processors via shared memory.
 %mem=16GB
 ----------------------------------------------------------------------
 #p opt=Restart wb97xd/6-31G** iop(3/107=0103900000,3/108=0103900000) T
 DA=(triplets, nstates=4, root=1)
 ----------------------------------------------------------------------
 1/18=20,19=15,26=3,35=1/3(2);
 2/9=110/2;
 99//99;
 2/9=110/2;
 3/5=1,6=6,7=101,11=9,25=1,30=1,71=1,74=-58,107=103900000,108=103900000/1,2,3,8;
 4/5=5,16=3,69=1/1;
 5/5=2,38=5/2;
 8/6=1,10=2,107=1,108=4/1;
 9/8=1,15=2,41=4,42=1,48=3,49=4/14;
 10/5=4,28=1/2;
 7/12=6,13=5,14=1/1,2,3,16;
 1/18=20,19=15,26=3/3(-8);
 2/9=110/2;
 6/7=2,8=2,9=2,10=2/1;
 99/9=10/99;
 Leave Link    1 at Mon Aug 26 20:43:15 2024, MaxMem=  2147483648 cpu:               0.6 elap:               0.1
 (Enter /apps/gaussian/g16/l103.exe)

 GradGradGradGradGradGradGradGradGradGradGradGradGradGradGradGradGradGrad
 Berny optimization.
 Restoring state from the checkpoint file "YZ-IX-171.chk".
 ONIOM results not found on unit 2.
 Title:  Tuning input file generated by xtune with parameters: w01039
 Route:  #p opt wb97xd/6-31G** iop(3/107=0103900000,3/108=0103900000) TDA=(triple
 ts, nstates=4, root=1)
 FncErr=1.00D-07 GrdErr=1.00D-06 EigMax=2.50D+02 EigMin=1.00D-04
 Using GEDIIS/GDIIS optimizer.
 FormGI is forming the generalized inverse of G from B-inverse, IUseBI=4.
 Internal  Forces:  Max     0.000019901 RMS     0.000002085
 Search for a local minimum.
 Step number  30 out of a maximum of  930
 All quantities printed in internal units (Hartrees-Bohrs-Radians)
 RMS Force = .20848D-05 SwitMx=.10000D-02 MixMth= 2
 Mixed Optimization -- En-DIIS/RFO-DIIS
 Swapping is turned off.
 Update second derivatives using D2CorX and points   13   14   15   16   17
                                                     18   19   20   21   22
                                                     23   24   25   26   27
                                                     28   29   30
 DE= -1.06D-07 DEPred=-3.21D-08 R= 3.29D+00
 Trust test= 3.29D+00 RLast= 7.50D-03 DXMaxT set to 1.59D-01
 ITU=  0  0 -1  0  0  0  0  1  1  1  1  1  1  1  1  1  1  1  1  1
 ITU= -1  1  0  1 -1  0 -1 -1  1  0
     Eigenvalues ---    0.00036   0.00229   0.00230   0.00230   0.00230
     Eigenvalues ---    0.00230   0.00230   0.00230   0.00231   0.00231
     Eigenvalues ---    0.00231   0.00231   0.00233   0.00238   0.00241
     Eigenvalues ---    0.00243   0.00243   0.00245   0.00245   0.00250
     Eigenvalues ---    0.00294   0.00307   0.00333   0.00414   0.00506
     Eigenvalues ---    0.00573   0.00613   0.00670   0.01044   0.01305
     Eigenvalues ---    0.01311   0.01319   0.01332   0.01343   0.01409
     Eigenvalues ---    0.01432   0.01537   0.01624   0.01669   0.01734
     Eigenvalues ---    0.01753   0.01768   0.01786   0.01797   0.01836
     Eigenvalues ---    0.01885   0.01904   0.01910   0.01913   0.01938
     Eigenvalues ---    0.01942   0.01952   0.01955   0.01979   0.01983
     Eigenvalues ---    0.02005   0.02025   0.02033   0.02047   0.02052
     Eigenvalues ---    0.02053   0.02058   0.02062   0.02066   0.02083
     Eigenvalues ---    0.02086   0.02089   0.02096   0.02108   0.02110
     Eigenvalues ---    0.02121   0.02126   0.02133   0.02136   0.02137
     Eigenvalues ---    0.02143   0.02148   0.02153   0.02158   0.02161
     Eigenvalues ---    0.02163   0.02164   0.02168   0.02170   0.02174
     Eigenvalues ---    0.02176   0.02178   0.02183   0.02184   0.02190
     Eigenvalues ---    0.02201   0.02206   0.02213   0.02246   0.02272
     Eigenvalues ---    0.02303   0.02336   0.02444   0.02547   0.02784
     Eigenvalues ---    0.02963   0.04061   0.04935   0.04938   0.04944
     Eigenvalues ---    0.04952   0.04955   0.04990   0.05057   0.05065
     Eigenvalues ---    0.05080   0.05089   0.05109   0.05140   0.05211
     Eigenvalues ---    0.05228   0.05244   0.05256   0.05259   0.05265
     Eigenvalues ---    0.05275   0.05277   0.05282   0.05320   0.05322
     Eigenvalues ---    0.05346   0.05353   0.05358   0.05360   0.05361
     Eigenvalues ---    0.05363   0.05366   0.05368   0.05375   0.05385
     Eigenvalues ---    0.05391   0.05392   0.05480   0.05487   0.05489
     Eigenvalues ---    0.05490   0.05491   0.05494   0.05496   0.05496
     Eigenvalues ---    0.05497   0.05500   0.05502   0.05506   0.05532
     Eigenvalues ---    0.05572   0.05574   0.05578   0.05579   0.05585
     Eigenvalues ---    0.05620   0.06706   0.09346   0.10597   0.11110
     Eigenvalues ---    0.14679   0.14684   0.14687   0.14691   0.14737
     Eigenvalues ---    0.14922   0.14982   0.15186   0.15246   0.15319
     Eigenvalues ---    0.15381   0.15437   0.15533   0.15614   0.15709
     Eigenvalues ---    0.15857   0.15937   0.15955   0.15983   0.15993
     Eigenvalues ---    0.15994   0.15997   0.15998   0.15999   0.16000
     Eigenvalues ---    0.16000   0.16000   0.16000   0.16000   0.16000
     Eigenvalues ---    0.16000   0.16000   0.16000   0.16000   0.16000
     Eigenvalues ---    0.16000   0.16000   0.16000   0.16000   0.16000
     Eigenvalues ---    0.16000   0.16000   0.16000   0.16000   0.16000
     Eigenvalues ---    0.16000   0.16000   0.16000   0.16000   0.16000
     Eigenvalues ---    0.16000   0.16000   0.16000   0.16000   0.16000
     Eigenvalues ---    0.16000   0.16000   0.16000   0.16000   0.16000
     Eigenvalues ---    0.16000   0.16000   0.16000   0.16000   0.16000
     Eigenvalues ---    0.16000   0.16000   0.16000   0.16000   0.16000
     Eigenvalues ---    0.16000   0.16001   0.16001   0.16002   0.16003
     Eigenvalues ---    0.16006   0.16010   0.16015   0.16015   0.16019
     Eigenvalues ---    0.16020   0.16037   0.16048   0.16065   0.16082
     Eigenvalues ---    0.16105   0.16138   0.16175   0.16212   0.16306
     Eigenvalues ---    0.16542   0.17004   0.19495   0.20605   0.21921
     Eigenvalues ---    0.21994   0.22067   0.22317   0.22446   0.22456
     Eigenvalues ---    0.22457   0.22473   0.22510   0.23117   0.23450
     Eigenvalues ---    0.23496   0.23506   0.23524   0.23555   0.23601
     Eigenvalues ---    0.23643   0.23807   0.24232   0.24415   0.24573
     Eigenvalues ---    0.24598   0.24633   0.24714   0.24746   0.24849
     Eigenvalues ---    0.24899   0.24906   0.24947   0.24975   0.24983
     Eigenvalues ---    0.25031   0.25050   0.25147   0.25162   0.25382
     Eigenvalues ---    0.25479   0.25776   0.25916   0.26363   0.26908
     Eigenvalues ---    0.28005   0.28009   0.28013   0.28018   0.28019
     Eigenvalues ---    0.28023   0.28026   0.28031   0.28037   0.28046
     Eigenvalues ---    0.28052   0.28070   0.28265   0.28512   0.28545
     Eigenvalues ---    0.28553   0.28556   0.28558   0.28561   0.28562
     Eigenvalues ---    0.28585   0.28593   0.28609   0.29001   0.29270
     Eigenvalues ---    0.30275   0.31975   0.34192   0.34197   0.34204
     Eigenvalues ---    0.34205   0.34207   0.34208   0.34210   0.34210
     Eigenvalues ---    0.34212   0.34212   0.34216   0.34219   0.34290
     Eigenvalues ---    0.34292   0.34295   0.34299   0.34302   0.34304
     Eigenvalues ---    0.34306   0.34308   0.34313   0.34322   0.34327
     Eigenvalues ---    0.34330   0.34337   0.34339   0.34341   0.34343
     Eigenvalues ---    0.34346   0.34347   0.34351   0.34351   0.34353
     Eigenvalues ---    0.34355   0.34356   0.34357   0.34359   0.34363
     Eigenvalues ---    0.34367   0.34380   0.34381   0.34395   0.34404
     Eigenvalues ---    0.34408   0.34411   0.34416   0.34419   0.34423
     Eigenvalues ---    0.34425   0.34430   0.34433   0.34437   0.34452
     Eigenvalues ---    0.34488   0.35207   0.35302   0.35344   0.35347
     Eigenvalues ---    0.35351   0.35353   0.35372   0.35410   0.35479
     Eigenvalues ---    0.35496   0.35512   0.35518   0.35568   0.35573
     Eigenvalues ---    0.35581   0.35588   0.35622   0.35631   0.35640
     Eigenvalues ---    0.35647   0.35652   0.35694   0.35701   0.35709
     Eigenvalues ---    0.35758   0.35780   0.36043   0.36135   0.36346
     Eigenvalues ---    0.36581   0.37104   0.37201   0.39663   0.39852
     Eigenvalues ---    0.40292   0.40441   0.40487   0.42266   0.42291
     Eigenvalues ---    0.42325   0.42360   0.42383   0.42460   0.42498
     Eigenvalues ---    0.42573   0.42622   0.42740   0.42930   0.43114
     Eigenvalues ---    0.43223   0.43364   0.43632   0.43822   0.44013
     Eigenvalues ---    0.44272   0.44359   0.44854   0.45051   0.45103
     Eigenvalues ---    0.45357   0.45446   0.45494   0.45646   0.45674
     Eigenvalues ---    0.45728   0.45970   0.46069   0.46384   0.46444
     Eigenvalues ---    0.46553   0.46651   0.46678   0.46713   0.46761
     Eigenvalues ---    0.46773   0.46796   0.46849   0.46890   0.46943
     Eigenvalues ---    0.46988   0.47069   0.47167   0.47194   0.47778
     Eigenvalues ---    0.49489   0.70760   0.84190   0.89548   0.90699
 En-DIIS/RFO-DIIS/Sim-DIIS IScMMF=       -3 using points:    30   29   28   27   26   25   24   23   22   21
 RFO step:  Lambda=-2.58445340D-08.
 NNeg= 0 NGDIIS=10 SimSw=  2.50D-03 Rises=F DC=  0.00D+00 SmlDif=  1.00D-05
 NRisDI= 0 DoIntr=F SqrtH=F CThrHd= 10.0 CDAdj=  3.0
 RMS Error=  0.6870949494D-04 NUsed=10 OKEnD=F EnDIS=F
 InvSVX:  RCond= 2.97D-08 Info=           0 Equed=N FErr=  2.47D-12 BErr=  5.55D-17
 DIIS inversion failure, remove point  10.
 InvSVX:  RCond= 3.48D-08 Info=           0 Equed=N FErr=  1.87D-12 BErr=  7.41D-17
 DIIS inversion failure, remove point   9.
 InvSVX:  RCond= 3.86D-08 Info=           0 Equed=N FErr=  1.35D-12 BErr=  4.31D-17
 DIIS inversion failure, remove point   8.
 InvSVX:  RCond= 4.42D-08 Info=           0 Equed=N FErr=  1.16D-12 BErr=  7.18D-17
 DIIS inversion failure, remove point   7.
 InvSVX:  RCond= 5.67D-08 Info=           0 Equed=N FErr=  8.90D-13 BErr=  6.20D-17
 DIIS inversion failure, remove point   6.
 InvSVX:  RCond= 7.60D-08 Info=           0 Equed=N FErr=  5.86D-13 BErr=  7.84D-17
 DIIS inversion failure, remove point   5.
 InvSVX:  RCond= 1.64D-07 Info=           0 Equed=N FErr=  8.37D-14 BErr=  3.45D-17
 RFO-DIIS uses    4 points instead of   10
 DidBck=F Rises=F RFO-DIIS coefs:    1.03147    0.23612   -0.30465    0.03707    0.00000
                  RFO-DIIS coefs:    0.00000    0.00000    0.00000    0.00000    0.00000
 Iteration  1 RMS(Cart)=  0.00057512 RMS(Int)=  0.00000002
 Iteration  2 RMS(Cart)=  0.00000021 RMS(Int)=  0.00000001
 ITry= 1 IFail=0 DXMaxC= 2.94D-03 DCOld= 1.00D+10 DXMaxT= 1.59D-01 DXLimC= 3.00D+00 Rises=F
 Variable       Old X    -DE/DX   Delta X   Delta X   Delta X     New X
                                 (Linear)    (Quad)   (Total)
    R1        2.62917  -0.00000  -0.00000  -0.00000  -0.00000   2.62917
    R2        2.66753  -0.00000   0.00000  -0.00000   0.00000   2.66753
    R3        2.64413  -0.00001  -0.00001  -0.00002  -0.00002   2.64411
    R4        2.63179   0.00000  -0.00000   0.00001   0.00000   2.63180
    R5        2.67121   0.00000  -0.00000   0.00000   0.00000   2.67121
    R6        2.63763  -0.00000  -0.00001  -0.00001  -0.00001   2.63762
    R7        2.63185  -0.00000  -0.00000  -0.00000  -0.00000   2.63185
    R8        2.04724   0.00000   0.00000   0.00000   0.00000   2.04724
    R9        2.74242   0.00000  -0.00000   0.00001   0.00001   2.74243
   R10        2.63048  -0.00000   0.00001  -0.00000   0.00000   2.63048
   R11        2.63340  -0.00000  -0.00000  -0.00000  -0.00000   2.63339
   R12        2.04758   0.00000  -0.00000   0.00000  -0.00000   2.04758
   R13        2.62972   0.00000   0.00001  -0.00000   0.00000   2.62973
   R14        2.66080   0.00000   0.00000  -0.00000  -0.00000   2.66080
   R15        2.04567   0.00000   0.00000   0.00000   0.00000   2.04567
   R16        2.64835   0.00000  -0.00001   0.00000  -0.00000   2.64835
   R17        2.05116   0.00000   0.00000   0.00000   0.00000   2.05116
   R18        2.66132   0.00000   0.00000  -0.00000  -0.00000   2.66132
   R19        2.04647  -0.00000   0.00000  -0.00000  -0.00000   2.04647
   R20        2.64999  -0.00000  -0.00000   0.00000  -0.00000   2.64999
   R21        2.05120   0.00000   0.00000  -0.00000   0.00000   2.05120
   R22        2.90823  -0.00000   0.00000  -0.00000  -0.00000   2.90823
   R23        2.90910   0.00000   0.00000  -0.00000   0.00000   2.90910
   R24        2.78389  -0.00002  -0.00001  -0.00005  -0.00005   2.78384
   R25        2.64762   0.00001  -0.00001   0.00005   0.00004   2.64766
   R26        2.65762  -0.00000   0.00002  -0.00000   0.00001   2.65763
   R27        2.61254  -0.00001  -0.00000  -0.00004  -0.00004   2.61249
   R28        2.64408   0.00000  -0.00001   0.00001   0.00000   2.64408
   R29        2.65328   0.00002   0.00001   0.00006   0.00008   2.65336
   R30        2.04822  -0.00000  -0.00000  -0.00001  -0.00001   2.04821
   R31        2.79976  -0.00000   0.00000   0.00000   0.00001   2.79976
   R32        3.33992   0.00000   0.00001   0.00001   0.00002   3.33994
   R33        2.61048  -0.00001   0.00001  -0.00006  -0.00005   2.61043
   R34        2.65662   0.00000  -0.00002   0.00001  -0.00001   2.65661
   R35        2.04985  -0.00000  -0.00000  -0.00000  -0.00001   2.04985
   R36        2.63253  -0.00000   0.00000   0.00000   0.00000   2.63254
   R37        2.66144   0.00000  -0.00000   0.00000   0.00000   2.66144
   R38        2.64220   0.00000   0.00000   0.00001   0.00001   2.64221
   R39        2.62716   0.00000  -0.00000   0.00000   0.00000   2.62716
   R40        2.66842   0.00000  -0.00000   0.00000   0.00000   2.66842
   R41        2.63908   0.00000   0.00000  -0.00000  -0.00000   2.63908
   R42        2.62188  -0.00000  -0.00000  -0.00000  -0.00000   2.62188
   R43        2.04513   0.00000  -0.00000   0.00000   0.00000   2.04513
   R44        2.74594   0.00000   0.00001   0.00001   0.00001   2.74596
   R45        2.63935   0.00000  -0.00001   0.00000  -0.00000   2.63935
   R46        2.63263  -0.00000   0.00000  -0.00000   0.00000   2.63263
   R47        2.04695  -0.00000  -0.00000  -0.00000  -0.00000   2.04694
   R48        2.62954   0.00000  -0.00001   0.00000  -0.00000   2.62953
   R49        2.67140  -0.00000  -0.00000  -0.00000  -0.00000   2.67140
   R50        2.04996   0.00000  -0.00000   0.00000  -0.00000   2.04996
   R51        2.64048  -0.00000   0.00001  -0.00001  -0.00000   2.64048
   R52        2.04714   0.00000  -0.00000   0.00000   0.00000   2.04714
   R53        2.66009   0.00000  -0.00000   0.00000  -0.00000   2.66009
   R54        2.04614  -0.00000  -0.00000  -0.00000  -0.00000   2.04613
   R55        2.65164   0.00000   0.00001   0.00000   0.00001   2.65165
   R56        2.05112  -0.00000  -0.00000  -0.00000  -0.00000   2.05112
   R57        2.90675  -0.00000   0.00000  -0.00001  -0.00001   2.90675
   R58        2.90869   0.00000  -0.00000   0.00000   0.00000   2.90869
   R59        2.92196  -0.00000  -0.00000   0.00000   0.00000   2.92196
   R60        2.92045   0.00000  -0.00000   0.00000   0.00000   2.92045
   R61        2.90903  -0.00000   0.00000  -0.00000  -0.00000   2.90903
   R62        2.92093  -0.00000  -0.00000   0.00000   0.00000   2.92093
   R63        2.92153  -0.00000  -0.00000   0.00000  -0.00000   2.92153
   R64        2.90947   0.00000   0.00000   0.00000   0.00000   2.90947
   R65        2.92145  -0.00000  -0.00000  -0.00000  -0.00000   2.92145
   R66        2.90940   0.00000  -0.00000   0.00000   0.00000   2.90940
   R67        2.92115  -0.00000   0.00000  -0.00000  -0.00000   2.92114
   R68        2.92139   0.00000   0.00000   0.00000   0.00000   2.92139
   R69        2.90921  -0.00000  -0.00000  -0.00000  -0.00000   2.90921
   R70        2.92164   0.00000   0.00000   0.00000   0.00000   2.92164
   R71        3.39964  -0.00000   0.00001  -0.00000   0.00001   3.39965
   R72        2.77291   0.00000   0.00000   0.00000   0.00001   2.77292
   R73        2.77902   0.00001  -0.00000   0.00001   0.00001   2.77903
   R74        2.63886   0.00000  -0.00000   0.00000   0.00000   2.63886
   R75        2.63396   0.00000   0.00000   0.00000   0.00001   2.63396
   R76        2.63140  -0.00000   0.00000   0.00000   0.00000   2.63140
   R77        2.04915  -0.00000   0.00000  -0.00000  -0.00000   2.04915
   R78        2.63430  -0.00000   0.00000  -0.00001  -0.00001   2.63429
   R79        2.04759   0.00000  -0.00000   0.00001   0.00001   2.04759
   R80        2.63992  -0.00000   0.00000   0.00000   0.00000   2.63993
   R81        2.05002  -0.00000   0.00000   0.00000   0.00000   2.05002
   R82        2.63475   0.00000   0.00000   0.00001   0.00001   2.63475
   R83        2.04813  -0.00000   0.00000  -0.00000  -0.00000   2.04813
   R84        2.04986   0.00000   0.00000   0.00000   0.00000   2.04986
   R85        2.06625   0.00000   0.00000   0.00000   0.00000   2.06625
   R86        2.06977   0.00000  -0.00000   0.00000  -0.00000   2.06977
   R87        2.06735  -0.00000  -0.00000  -0.00000  -0.00000   2.06735
   R88        2.06828  -0.00000   0.00000  -0.00000  -0.00000   2.06828
   R89        2.06811   0.00000  -0.00000   0.00000   0.00000   2.06811
   R90        2.06759   0.00000  -0.00000   0.00000   0.00000   2.06759
   R91        2.06713   0.00000   0.00000   0.00000   0.00000   2.06713
   R92        2.06968  -0.00000  -0.00000  -0.00000  -0.00000   2.06968
   R93        2.06627   0.00000   0.00000   0.00000   0.00000   2.06627
   R94        2.06606  -0.00000  -0.00000  -0.00000  -0.00000   2.06606
   R95        2.06976  -0.00000  -0.00000  -0.00000  -0.00000   2.06976
   R96        2.06759   0.00000   0.00000   0.00000   0.00000   2.06759
   R97        2.06830   0.00000   0.00000   0.00000   0.00000   2.06830
   R98        2.06851  -0.00000   0.00000  -0.00000  -0.00000   2.06851
   R99        2.06759  -0.00000  -0.00000  -0.00000  -0.00000   2.06759
   R100       2.06576  -0.00000  -0.00000  -0.00000  -0.00000   2.06576
   R101       2.06707  -0.00000  -0.00000  -0.00000  -0.00000   2.06707
   R102       2.06988   0.00000  -0.00000   0.00000  -0.00000   2.06988
   R103       2.06645   0.00000   0.00000   0.00000   0.00000   2.06645
   R104       2.06962   0.00000   0.00000   0.00000   0.00000   2.06962
   R105       2.06707  -0.00000   0.00000  -0.00000  -0.00000   2.06707
   R106       2.06967  -0.00000   0.00000   0.00000   0.00000   2.06967
   R107       2.06627  -0.00000  -0.00000  -0.00000  -0.00000   2.06627
   R108       2.06716  -0.00000   0.00000  -0.00000   0.00000   2.06716
   R109       2.06795   0.00000   0.00000  -0.00000   0.00000   2.06795
   R110       2.06835  -0.00000  -0.00000  -0.00000  -0.00000   2.06835
   R111       2.06753  -0.00000   0.00000  -0.00000   0.00000   2.06753
   R112       2.07003  -0.00000   0.00000  -0.00000   0.00000   2.07003
   R113       2.06651   0.00000  -0.00000   0.00000   0.00000   2.06651
   R114       2.06756   0.00000  -0.00000   0.00000   0.00000   2.06757
   R115       2.06632  -0.00000   0.00000  -0.00000  -0.00000   2.06632
   R116       2.06965   0.00000   0.00000   0.00000   0.00000   2.06965
   R117       2.06722  -0.00000   0.00000  -0.00000   0.00000   2.06722
   R118       2.06702  -0.00000  -0.00000  -0.00000  -0.00000   2.06701
   R119       2.06811  -0.00000  -0.00000  -0.00000  -0.00000   2.06811
   R120       2.06771   0.00000   0.00000   0.00000   0.00000   2.06771
   R121       2.64823  -0.00001   0.00000  -0.00002  -0.00002   2.64821
   R122       2.64721  -0.00001   0.00001  -0.00001   0.00000   2.64721
   R123       2.62695  -0.00000  -0.00000  -0.00001  -0.00001   2.62694
   R124       2.66411  -0.00000  -0.00000  -0.00001  -0.00001   2.66410
   R125       2.63103  -0.00000  -0.00000  -0.00000  -0.00001   2.63103
   R126       2.66982  -0.00000  -0.00000  -0.00000  -0.00000   2.66982
   R127       2.63334   0.00000   0.00000   0.00000   0.00000   2.63334
   R128       2.04557   0.00000  -0.00000   0.00001   0.00000   2.04558
   R129       2.74766   0.00001   0.00000   0.00002   0.00002   2.74768
   R130       2.62407  -0.00000  -0.00000  -0.00000  -0.00000   2.62407
   R131       2.63480  -0.00000   0.00000  -0.00000   0.00000   2.63480
   R132       2.04626  -0.00000   0.00000  -0.00000  -0.00000   2.04626
   R133       2.62349  -0.00000  -0.00000  -0.00000  -0.00000   2.62349
   R134       2.65717   0.00000   0.00000  -0.00000  -0.00000   2.65717
   R135       2.04485  -0.00000  -0.00000  -0.00000  -0.00000   2.04485
   R136       2.65438   0.00000  -0.00000   0.00001   0.00001   2.65439
   R137       2.05034  -0.00000   0.00000  -0.00000  -0.00000   2.05034
   R138       2.65814  -0.00000  -0.00000  -0.00000  -0.00000   2.65814
   R139       2.04561  -0.00000   0.00000  -0.00000  -0.00000   2.04561
   R140       2.65458   0.00000  -0.00000   0.00000   0.00000   2.65459
   R141       2.05041  -0.00000   0.00000  -0.00000  -0.00000   2.05041
   R142       2.90629   0.00000  -0.00000   0.00000  -0.00000   2.90629
   R143       2.90690   0.00000  -0.00000   0.00000   0.00000   2.90690
   R144       2.90867   0.00000  -0.00000  -0.00000  -0.00000   2.90866
   R145       2.92071   0.00000  -0.00000   0.00000   0.00000   2.92072
   R146       2.92235  -0.00000   0.00000   0.00000   0.00000   2.92236
   R147       2.90916   0.00000   0.00000  -0.00000  -0.00000   2.90916
   R148       2.92146   0.00000  -0.00000   0.00000   0.00000   2.92146
   R149       2.92192   0.00000  -0.00000   0.00000   0.00000   2.92192
   R150       2.06649  -0.00000  -0.00000  -0.00000  -0.00000   2.06649
   R151       2.06813  -0.00000  -0.00000  -0.00000  -0.00000   2.06813
   R152       2.06736  -0.00000   0.00000  -0.00000   0.00000   2.06736
   R153       2.06722  -0.00000   0.00000  -0.00000  -0.00000   2.06722
   R154       2.06626  -0.00000   0.00000  -0.00000  -0.00000   2.06626
   R155       2.06921   0.00000   0.00000   0.00000   0.00000   2.06922
   R156       2.06701   0.00000  -0.00000   0.00000   0.00000   2.06701
   R157       2.06956   0.00000   0.00000   0.00000   0.00000   2.06956
   R158       2.06635  -0.00000  -0.00000  -0.00000  -0.00000   2.06635
   R159       2.06770  -0.00000   0.00000  -0.00000  -0.00000   2.06770
   R160       2.06803   0.00000   0.00000  -0.00000  -0.00000   2.06803
   R161       2.06719   0.00000  -0.00000   0.00000   0.00000   2.06719
   R162       2.06647  -0.00000  -0.00000   0.00000   0.00000   2.06647
   R163       2.06915   0.00000   0.00000   0.00000   0.00000   2.06915
   R164       2.06684  -0.00000   0.00000  -0.00000  -0.00000   2.06684
   R165       2.06638   0.00000  -0.00000  -0.00000  -0.00000   2.06638
   R166       2.06697  -0.00000   0.00000  -0.00000  -0.00000   2.06697
   R167       2.06913   0.00000   0.00000   0.00000   0.00000   2.06913
    A1        2.11102   0.00000  -0.00000  -0.00000  -0.00000   2.11101
    A2        2.26114  -0.00000   0.00000   0.00000   0.00000   2.26114
    A3        1.91054   0.00000  -0.00000  -0.00000  -0.00000   1.91054
    A4        2.11066  -0.00000  -0.00000  -0.00000  -0.00000   2.11066
    A5        2.26109   0.00000   0.00000   0.00001   0.00001   2.26110
    A6        1.91066  -0.00000   0.00000  -0.00000  -0.00000   1.91066
    A7        2.05802   0.00000   0.00000   0.00000   0.00000   2.05803
    A8        2.12018  -0.00000   0.00000  -0.00002  -0.00001   2.12017
    A9        2.10498   0.00000  -0.00000   0.00001   0.00001   2.10499
   A10        1.86032  -0.00000   0.00000  -0.00000  -0.00000   1.86032
   A11        2.09090  -0.00000  -0.00000  -0.00000  -0.00000   2.09089
   A12        2.33187   0.00000   0.00000   0.00000   0.00000   2.33188
   A13        2.05907   0.00000   0.00000   0.00000   0.00000   2.05907
   A14        2.11829  -0.00000  -0.00001  -0.00001  -0.00001   2.11828
   A15        2.10581   0.00000   0.00000   0.00000   0.00001   2.10582
   A16        1.86072  -0.00000  -0.00000  -0.00000  -0.00001   1.86071
   A17        2.09009  -0.00000  -0.00000  -0.00000  -0.00000   2.09008
   A18        2.33229   0.00000   0.00000   0.00001   0.00001   2.33230
   A19        2.14146  -0.00000   0.00000  -0.00000  -0.00000   2.14146
   A20        2.04850   0.00000  -0.00000   0.00000   0.00000   2.04850
   A21        2.09323   0.00000  -0.00000   0.00000  -0.00000   2.09323
   A22        2.10336   0.00000   0.00000   0.00000   0.00000   2.10337
   A23        2.07946   0.00000  -0.00000   0.00000   0.00000   2.07946
   A24        2.10036  -0.00000  -0.00000  -0.00001  -0.00001   2.10035
   A25        2.14129   0.00000  -0.00000  -0.00000  -0.00000   2.14129
   A26        2.05078   0.00000   0.00000   0.00000   0.00000   2.05078
   A27        2.09110  -0.00000  -0.00000  -0.00000  -0.00000   2.09110
   A28        2.10550   0.00000   0.00000   0.00000   0.00000   2.10551
   A29        2.07808   0.00000  -0.00000   0.00000   0.00000   2.07808
   A30        2.09960  -0.00000  -0.00000  -0.00000  -0.00000   2.09960
   A31        2.05992   0.00000  -0.00000  -0.00000  -0.00000   2.05992
   A32        2.13821   0.00000   0.00000   0.00000   0.00000   2.13822
   A33        2.08503  -0.00000   0.00000  -0.00000  -0.00000   2.08503
   A34        2.05957   0.00000  -0.00000   0.00000  -0.00000   2.05957
   A35        2.13836  -0.00000   0.00000  -0.00000  -0.00000   2.13836
   A36        2.08525  -0.00000   0.00000   0.00000   0.00000   2.08525
   A37        2.05080   0.00000  -0.00000  -0.00001  -0.00002   2.05079
   A38        2.11949  -0.00001   0.00001   0.00001   0.00002   2.11951
   A39        2.10575   0.00000  -0.00001  -0.00001  -0.00002   2.10574
   A40        2.09440   0.00001   0.00001   0.00003   0.00003   2.09444
   A41        2.09519  -0.00001   0.00000  -0.00004  -0.00004   2.09515
   A42        2.09349   0.00000  -0.00001   0.00001   0.00000   2.09349
   A43        2.13804  -0.00000   0.00001  -0.00000   0.00001   2.13804
   A44        2.08215   0.00000  -0.00001  -0.00000  -0.00001   2.08215
   A45        2.06016   0.00000  -0.00001   0.00000  -0.00000   2.06016
   A46        2.04853  -0.00001  -0.00002  -0.00004  -0.00006   2.04847
   A47        2.02998   0.00001  -0.00002  -0.00002  -0.00003   2.02995
   A48        2.14964  -0.00001  -0.00003   0.00002  -0.00001   2.14963
   A49        2.08874   0.00001   0.00001   0.00003   0.00004   2.08878
   A50        2.12631  -0.00002  -0.00001  -0.00004  -0.00005   2.12626
   A51        2.06646   0.00001   0.00001   0.00000   0.00001   2.06647
   A52        2.14247  -0.00000   0.00000  -0.00001  -0.00000   2.14247
   A53        2.07535   0.00000  -0.00002  -0.00000  -0.00002   2.07533
   A54        2.06270   0.00000   0.00001   0.00001   0.00002   2.06272
   A55        2.11852   0.00000   0.00001   0.00001   0.00001   2.11853
   A56        2.25638  -0.00000  -0.00001   0.00001  -0.00000   2.25638
   A57        1.90734  -0.00000   0.00000  -0.00001  -0.00001   1.90733
   A58        2.11712  -0.00000   0.00000  -0.00001  -0.00001   2.11711
   A59        2.25725   0.00000   0.00000   0.00000   0.00001   2.25726
   A60        1.90717   0.00000  -0.00000   0.00000   0.00000   1.90717
   A61        2.04933  -0.00000  -0.00000  -0.00000  -0.00001   2.04932
   A62        2.11574  -0.00000  -0.00000  -0.00001  -0.00001   2.11573
   A63        2.11774   0.00000   0.00001   0.00001   0.00002   2.11776
   A64        1.86344   0.00000  -0.00000   0.00001   0.00000   1.86344
   A65        2.09244  -0.00000  -0.00000  -0.00000  -0.00001   2.09243
   A66        2.32700   0.00000   0.00000  -0.00000   0.00000   2.32701
   A67        2.05660   0.00000  -0.00000   0.00000   0.00000   2.05660
   A68        2.11337   0.00000   0.00000   0.00000   0.00000   2.11337
   A69        2.11277  -0.00000  -0.00000  -0.00000  -0.00000   2.11276
   A70        1.86004  -0.00000   0.00000  -0.00001  -0.00000   1.86004
   A71        2.08668   0.00000   0.00000   0.00001   0.00001   2.08669
   A72        2.33623   0.00000  -0.00000  -0.00000  -0.00000   2.33623
   A73        2.14688  -0.00000  -0.00000  -0.00000  -0.00000   2.14687
   A74        2.05474   0.00000   0.00000   0.00000   0.00000   2.05474
   A75        2.08156   0.00000  -0.00000  -0.00000  -0.00000   2.08156
   A76        2.09632  -0.00000  -0.00000  -0.00000  -0.00000   2.09631
   A77        2.07749   0.00000  -0.00000   0.00001   0.00001   2.07751
   A78        2.10933  -0.00000   0.00000  -0.00001  -0.00001   2.10932
   A79        2.14005   0.00000  -0.00000   0.00000   0.00000   2.14006
   A80        2.05191  -0.00000  -0.00000   0.00000  -0.00000   2.05191
   A81        2.09117  -0.00000   0.00000  -0.00000  -0.00000   2.09117
   A82        2.10397   0.00000  -0.00000  -0.00000  -0.00000   2.10397
   A83        2.07910   0.00000   0.00000   0.00000   0.00000   2.07910
   A84        2.10009  -0.00000  -0.00000  -0.00000  -0.00000   2.10009
   A85        2.06255   0.00000   0.00000   0.00001   0.00001   2.06256
   A86        2.08149   0.00000  -0.00000   0.00001   0.00001   2.08150
   A87        2.13914  -0.00001  -0.00000  -0.00002  -0.00002   2.13912
   A88        2.06181  -0.00000   0.00000  -0.00000  -0.00000   2.06181
   A89        2.13770   0.00000   0.00000   0.00001   0.00001   2.13771
   A90        2.08366  -0.00000  -0.00000  -0.00000  -0.00000   2.08366
   A91        1.90156  -0.00000   0.00001  -0.00000   0.00000   1.90156
   A92        1.91589   0.00000  -0.00000   0.00000  -0.00000   1.91589
   A93        1.96180   0.00000   0.00000   0.00000   0.00000   1.96180
   A94        1.91159   0.00000  -0.00000   0.00000  -0.00000   1.91159
   A95        1.88670   0.00000  -0.00000   0.00000   0.00000   1.88670
   A96        1.88569  -0.00000  -0.00000  -0.00000  -0.00000   1.88568
   A97        1.91141  -0.00000  -0.00000  -0.00001  -0.00001   1.91140
   A98        1.90766   0.00000   0.00000   0.00000   0.00001   1.90767
   A99        1.96245   0.00000   0.00000   0.00000   0.00000   1.96246
   A100       1.91005   0.00000  -0.00000  -0.00000  -0.00000   1.91004
   A101       1.88554   0.00000  -0.00000   0.00000   0.00000   1.88554
   A102       1.88603  -0.00000  -0.00000  -0.00000  -0.00000   1.88603
   A103       1.88161   0.00000   0.00000   0.00001   0.00001   1.88162
   A104       2.20984  -0.00000   0.00000   0.00001   0.00001   2.20985
   A105       2.18558   0.00000  -0.00000  -0.00002  -0.00002   2.18556
   A106       2.22069   0.00000  -0.00002   0.00002  -0.00001   2.22069
   A107       2.17000  -0.00000   0.00003  -0.00003  -0.00000   2.16999
   A108       1.88642   0.00000   0.00000   0.00000   0.00001   1.88642
   A109       1.90842  -0.00000  -0.00000  -0.00000  -0.00001   1.90841
   A110       1.96236   0.00000   0.00000   0.00001   0.00001   1.96237
   A111       1.91055  -0.00000  -0.00000   0.00000   0.00000   1.91055
   A112       1.88634  -0.00000   0.00000  -0.00000   0.00000   1.88634
   A113       1.91023   0.00000   0.00000  -0.00001  -0.00000   1.91023
   A114       1.88526  -0.00000  -0.00000  -0.00000  -0.00000   1.88526
   A115       1.91118   0.00000  -0.00000   0.00000   0.00000   1.91118
   A116       1.95966  -0.00000   0.00000  -0.00002  -0.00002   1.95965
   A117       1.90778   0.00000  -0.00000   0.00001   0.00001   1.90779
   A118       1.88613   0.00000   0.00000   0.00000   0.00000   1.88613
   A119       1.91177  -0.00000   0.00000   0.00001   0.00001   1.91178
   A120       1.88674   0.00000  -0.00000   0.00000   0.00000   1.88675
   A121       1.83638   0.00000   0.00000   0.00006   0.00006   1.83643
   A122       1.92235  -0.00001   0.00001  -0.00002  -0.00001   1.92234
   A123       1.86287   0.00001  -0.00000   0.00000   0.00000   1.86287
   A124       1.86111  -0.00000  -0.00001  -0.00001  -0.00002   1.86109
   A125       1.88327  -0.00000   0.00001  -0.00003  -0.00001   1.88326
   A126       2.08298   0.00000  -0.00001   0.00001  -0.00001   2.08298
   A127       2.08069  -0.00000   0.00000  -0.00001  -0.00001   2.08068
   A128       2.08429  -0.00000   0.00000   0.00001   0.00001   2.08430
   A129       2.11784   0.00000  -0.00000   0.00000  -0.00000   2.11784
   A130       2.07819  -0.00000   0.00000  -0.00000   0.00000   2.07820
   A131       2.09484  -0.00000   0.00000  -0.00001  -0.00001   2.09483
   A132       2.11008   0.00000  -0.00000   0.00001   0.00001   2.11008
   A133       2.07836  -0.00000   0.00000  -0.00000   0.00000   2.07836
   A134       2.08383   0.00000  -0.00000   0.00002   0.00001   2.08384
   A135       2.12099  -0.00000   0.00000  -0.00001  -0.00001   2.12097
   A136       2.09620  -0.00000   0.00000  -0.00000  -0.00000   2.09619
   A137       2.09013  -0.00000   0.00000  -0.00000  -0.00000   2.09013
   A138       2.09685   0.00000  -0.00000   0.00000   0.00000   2.09685
   A139       2.09694   0.00000   0.00000   0.00000   0.00000   2.09694
   A140       2.08736  -0.00000   0.00000  -0.00001  -0.00001   2.08735
   A141       2.09884   0.00000  -0.00000   0.00001   0.00001   2.09885
   A142       2.09884   0.00000  -0.00000   0.00000  -0.00000   2.09884
   A143       2.09133   0.00000   0.00000   0.00000   0.00000   2.09133
   A144       2.09302  -0.00000   0.00000  -0.00000  -0.00000   2.09301
   A145       1.95147   0.00000  -0.00000  -0.00000  -0.00000   1.95147
   A146       1.92778  -0.00000  -0.00000   0.00000  -0.00000   1.92778
   A147       1.93365  -0.00000  -0.00000  -0.00000  -0.00000   1.93365
   A148       1.87913  -0.00000   0.00000  -0.00000  -0.00000   1.87913
   A149       1.88058   0.00000   0.00000   0.00000   0.00000   1.88058
   A150       1.88892   0.00000   0.00000   0.00000   0.00000   1.88893
   A151       1.95170   0.00000  -0.00000   0.00000   0.00000   1.95170
   A152       1.95143   0.00000   0.00000   0.00000   0.00000   1.95144
   A153       1.91372   0.00000  -0.00000   0.00000   0.00000   1.91372
   A154       1.89197  -0.00000   0.00000  -0.00000   0.00000   1.89197
   A155       1.87584  -0.00000  -0.00000   0.00000  -0.00000   1.87583
   A156       1.87610  -0.00000   0.00000  -0.00000  -0.00000   1.87610
   A157       1.93294  -0.00000  -0.00000   0.00000  -0.00000   1.93294
   A158       1.92784   0.00000  -0.00000  -0.00000  -0.00000   1.92784
   A159       1.95265   0.00000   0.00000   0.00000   0.00001   1.95265
   A160       1.88775   0.00000  -0.00000  -0.00000  -0.00000   1.88775
   A161       1.88186   0.00000   0.00000   0.00000   0.00000   1.88186
   A162       1.87847  -0.00000   0.00000  -0.00000  -0.00000   1.87846
   A163       1.95253   0.00000   0.00000   0.00000   0.00000   1.95253
   A164       1.92634  -0.00000  -0.00000   0.00000  -0.00000   1.92634
   A165       1.93410   0.00000  -0.00000   0.00000   0.00000   1.93410
   A166       1.87838  -0.00000   0.00000  -0.00000  -0.00000   1.87838
   A167       1.88144  -0.00000   0.00000  -0.00000  -0.00000   1.88144
   A168       1.88874  -0.00000   0.00000  -0.00000  -0.00000   1.88874
   A169       1.95070  -0.00000  -0.00000   0.00000  -0.00000   1.95070
   A170       1.95150  -0.00000  -0.00000  -0.00000  -0.00000   1.95150
   A171       1.91397  -0.00000  -0.00000  -0.00000  -0.00000   1.91397
   A172       1.89288  -0.00000   0.00000  -0.00000  -0.00000   1.89288
   A173       1.87579   0.00000   0.00000   0.00000   0.00000   1.87579
   A174       1.87594   0.00000   0.00000   0.00000   0.00000   1.87594
   A175       1.95259   0.00000  -0.00000   0.00000   0.00000   1.95259
   A176       1.93371   0.00000   0.00000   0.00000   0.00000   1.93371
   A177       1.92635   0.00000  -0.00000   0.00000  -0.00000   1.92635
   A178       1.87922  -0.00000   0.00000  -0.00000  -0.00000   1.87921
   A179       1.87995  -0.00000   0.00000  -0.00000   0.00000   1.87995
   A180       1.88976  -0.00000   0.00000  -0.00000  -0.00000   1.88976
   A181       1.95251  -0.00000  -0.00000  -0.00000  -0.00000   1.95251
   A182       1.92763   0.00000   0.00000   0.00000   0.00000   1.92764
   A183       1.93284  -0.00000  -0.00000  -0.00000  -0.00000   1.93284
   A184       1.87885   0.00000  -0.00000   0.00000   0.00000   1.87885
   A185       1.88290   0.00000   0.00000   0.00000   0.00000   1.88290
   A186       1.88678   0.00000  -0.00000  -0.00000  -0.00000   1.88678
   A187       1.92719  -0.00000   0.00000  -0.00000  -0.00000   1.92719
   A188       1.95193   0.00000  -0.00000   0.00000   0.00000   1.95194
   A189       1.93383  -0.00000  -0.00000   0.00000  -0.00000   1.93383
   A190       1.87886  -0.00000  -0.00000  -0.00000  -0.00000   1.87886
   A191       1.88897   0.00000   0.00000  -0.00000  -0.00000   1.88897
   A192       1.88076  -0.00000  -0.00000   0.00000   0.00000   1.88076
   A193       1.95156  -0.00000  -0.00000   0.00000  -0.00000   1.95156
   A194       1.95224   0.00000   0.00000  -0.00000  -0.00000   1.95224
   A195       1.91341  -0.00000   0.00000  -0.00000  -0.00000   1.91341
   A196       1.89238  -0.00000  -0.00000  -0.00000  -0.00000   1.89238
   A197       1.87599   0.00000   0.00000   0.00000   0.00000   1.87600
   A198       1.87512  -0.00000   0.00000  -0.00000  -0.00000   1.87512
   A199       1.92932   0.00000   0.00000   0.00000   0.00000   1.92932
   A200       1.94936  -0.00000   0.00000  -0.00000  -0.00000   1.94936
   A201       1.93166  -0.00000  -0.00000  -0.00000  -0.00000   1.93165
   A202       1.88092   0.00000   0.00000   0.00000   0.00000   1.88093
   A203       1.89017  -0.00000  -0.00000  -0.00000  -0.00000   1.89017
   A204       1.88027   0.00000  -0.00000   0.00000   0.00000   1.88027
   A205       1.95380   0.00000  -0.00000   0.00001   0.00000   1.95381
   A206       1.92691  -0.00000   0.00000  -0.00000  -0.00000   1.92691
   A207       1.93391  -0.00000  -0.00000   0.00000   0.00000   1.93391
   A208       1.87713  -0.00000   0.00000  -0.00000  -0.00000   1.87713
   A209       1.88098  -0.00000  -0.00000   0.00000  -0.00000   1.88098
   A210       1.88871   0.00000  -0.00000  -0.00000  -0.00000   1.88870
   A211       1.95053   0.00000   0.00000   0.00001   0.00001   1.95054
   A212       1.95115  -0.00000   0.00000  -0.00000  -0.00000   1.95114
   A213       1.91378  -0.00000  -0.00000  -0.00000  -0.00000   1.91378
   A214       1.89258   0.00000  -0.00000   0.00000   0.00000   1.89258
   A215       1.87617  -0.00000   0.00000  -0.00001  -0.00001   1.87616
   A216       1.87665   0.00000  -0.00000   0.00000   0.00000   1.87665
   A217       2.20404  -0.00001   0.00001  -0.00003  -0.00001   2.20402
   A218       2.18775   0.00000  -0.00002   0.00002   0.00001   2.18775
   A219       1.88457   0.00000   0.00000   0.00001   0.00001   1.88458
   A220       2.25877  -0.00001   0.00001  -0.00002  -0.00002   2.25875
   A221       1.90864   0.00000  -0.00000   0.00001   0.00000   1.90864
   A222       2.11368   0.00001  -0.00000   0.00002   0.00001   2.11369
   A223       2.26419  -0.00000   0.00000  -0.00001  -0.00000   2.26419
   A224       1.90492  -0.00000  -0.00000  -0.00000  -0.00001   1.90492
   A225       2.11193   0.00000  -0.00000   0.00001   0.00001   2.11193
   A226       2.05611  -0.00000  -0.00000  -0.00000  -0.00001   2.05610
   A227       2.12146  -0.00001   0.00002  -0.00004  -0.00002   2.12143
   A228       2.10560   0.00001  -0.00002   0.00004   0.00003   2.10563
   A229       1.86168  -0.00000   0.00000  -0.00001  -0.00001   1.86167
   A230       2.09135  -0.00000   0.00001  -0.00001  -0.00001   2.09135
   A231       2.32984   0.00001  -0.00001   0.00002   0.00001   2.32985
   A232       2.05637  -0.00000  -0.00000  -0.00000  -0.00000   2.05636
   A233       2.12353  -0.00000   0.00000  -0.00002  -0.00002   2.12350
   A234       2.10329   0.00000  -0.00000   0.00003   0.00002   2.10332
   A235       1.86405  -0.00000   0.00000  -0.00000  -0.00000   1.86405
   A236       2.09231  -0.00000   0.00000  -0.00001  -0.00000   2.09231
   A237       2.32662   0.00000  -0.00001   0.00001   0.00000   2.32663
   A238       2.13991  -0.00000   0.00000  -0.00000  -0.00000   2.13991
   A239       2.04820   0.00000  -0.00000   0.00000  -0.00000   2.04820
   A240       2.09508   0.00000  -0.00000   0.00000   0.00000   2.09508
   A241       2.10113  -0.00000  -0.00000   0.00000  -0.00000   2.10113
   A242       2.08162   0.00000   0.00000   0.00000   0.00000   2.08162
   A243       2.10044  -0.00000   0.00000  -0.00000  -0.00000   2.10044
   A244       2.14199  -0.00000   0.00000  -0.00000   0.00000   2.14199
   A245       2.04963   0.00000  -0.00000   0.00001   0.00001   2.04963
   A246       2.09157  -0.00000  -0.00000  -0.00001  -0.00001   2.09156
   A247       2.10299  -0.00000  -0.00000   0.00000  -0.00000   2.10299
   A248       2.07984   0.00000  -0.00000   0.00000   0.00000   2.07984
   A249       2.10033  -0.00000   0.00000  -0.00000  -0.00000   2.10032
   A250       2.06142   0.00000  -0.00000   0.00000   0.00000   2.06142
   A251       2.13881   0.00000   0.00000  -0.00000   0.00000   2.13881
   A252       2.08295  -0.00000   0.00000  -0.00000  -0.00000   2.08295
   A253       2.06035   0.00000  -0.00000   0.00000   0.00000   2.06035
   A254       2.13879   0.00000   0.00000  -0.00000   0.00000   2.13879
   A255       2.08404  -0.00000   0.00000  -0.00000  -0.00000   2.08404
   A256       1.96153   0.00000   0.00000   0.00000   0.00000   1.96153
   A257       1.91476  -0.00000  -0.00000  -0.00000  -0.00000   1.91476
   A258       1.89934  -0.00000  -0.00000   0.00000   0.00000   1.89934
   A259       1.88721  -0.00000   0.00000  -0.00000  -0.00000   1.88720
   A260       1.88762  -0.00000   0.00000   0.00000   0.00000   1.88762
   A261       1.91289   0.00000  -0.00000  -0.00000  -0.00000   1.91289
   A262       1.96221   0.00000   0.00000   0.00000   0.00000   1.96221
   A263       1.90872  -0.00000  -0.00000  -0.00000  -0.00000   1.90871
   A264       1.90643   0.00000  -0.00000   0.00001   0.00001   1.90643
   A265       1.88733   0.00000   0.00000  -0.00000   0.00000   1.88733
   A266       1.88716  -0.00000  -0.00000  -0.00000  -0.00000   1.88716
   A267       1.91144  -0.00000  -0.00000  -0.00000  -0.00000   1.91144
   A268       1.95012   0.00000  -0.00000   0.00000   0.00000   1.95012
   A269       1.95162  -0.00000  -0.00000  -0.00000  -0.00000   1.95162
   A270       1.91289   0.00000  -0.00000  -0.00000  -0.00000   1.91289
   A271       1.89371   0.00000   0.00000   0.00000   0.00000   1.89372
   A272       1.87650  -0.00000   0.00000  -0.00000  -0.00000   1.87650
   A273       1.87601   0.00000   0.00000   0.00000   0.00000   1.87601
   A274       1.93476  -0.00000   0.00000  -0.00000  -0.00000   1.93476
   A275       1.95498   0.00000   0.00000   0.00000   0.00000   1.95498
   A276       1.92501  -0.00000  -0.00000  -0.00000  -0.00000   1.92501
   A277       1.88161   0.00000  -0.00000   0.00000   0.00000   1.88161
   A278       1.88835   0.00000  -0.00000  -0.00000  -0.00000   1.88835
   A279       1.87671  -0.00000  -0.00000  -0.00000  -0.00000   1.87671
   A280       1.93229  -0.00000  -0.00000  -0.00000  -0.00000   1.93229
   A281       1.92693   0.00000  -0.00000   0.00000   0.00000   1.92693
   A282       1.95079  -0.00000   0.00000  -0.00000  -0.00000   1.95078
   A283       1.89060  -0.00000   0.00000  -0.00000  -0.00000   1.89060
   A284       1.88054   0.00000  -0.00000   0.00000   0.00000   1.88054
   A285       1.88058   0.00000   0.00000   0.00000   0.00000   1.88058
   A286       1.95209   0.00000  -0.00000   0.00000  -0.00000   1.95209
   A287       1.95281  -0.00000   0.00000   0.00000   0.00000   1.95281
   A288       1.91226  -0.00000  -0.00000  -0.00000  -0.00000   1.91226
   A289       1.89301   0.00000   0.00000   0.00000   0.00000   1.89301
   A290       1.87592  -0.00000  -0.00000   0.00000   0.00000   1.87592
   A291       1.87455   0.00000  -0.00000  -0.00000  -0.00000   1.87455
   A292       1.95374  -0.00000  -0.00000  -0.00000  -0.00000   1.95374
   A293       1.92541  -0.00000   0.00000   0.00000   0.00000   1.92541
   A294       1.93358  -0.00000   0.00000  -0.00000  -0.00000   1.93358
   A295       1.87869   0.00000  -0.00000   0.00000   0.00000   1.87869
   A296       1.88290   0.00000   0.00000   0.00000   0.00000   1.88290
   A297       1.88720   0.00000   0.00000  -0.00000  -0.00000   1.88720
   A298       1.95335   0.00000  -0.00000   0.00000   0.00000   1.95336
   A299       1.93457   0.00000   0.00000   0.00000   0.00000   1.93457
   A300       1.92485  -0.00000  -0.00000  -0.00000  -0.00000   1.92484
   A301       1.88177  -0.00000   0.00000   0.00000   0.00000   1.88177
   A302       1.87832  -0.00000  -0.00000  -0.00000  -0.00000   1.87831
   A303       1.88868  -0.00000  -0.00000  -0.00000  -0.00000   1.88868
    D1        0.05889  -0.00000  -0.00003  -0.00000  -0.00003   0.05886
    D2       -3.08455  -0.00000  -0.00003  -0.00002  -0.00005  -3.08460
    D3       -3.12024  -0.00000   0.00001   0.00000   0.00001  -3.12023
    D4        0.01951  -0.00000   0.00000  -0.00002  -0.00001   0.01950
    D5        3.07476   0.00000   0.00003   0.00001   0.00004   3.07479
    D6       -0.05410   0.00000   0.00003   0.00000   0.00003  -0.05407
    D7       -0.03614   0.00000   0.00000   0.00000   0.00001  -0.03614
    D8        3.11819   0.00000  -0.00000   0.00000  -0.00000   3.11819
    D9       -3.06519  -0.00000  -0.00004  -0.00001  -0.00005  -3.06523
   D10        0.19113  -0.00000  -0.00005   0.00001  -0.00004   0.19109
   D11        0.04227  -0.00000  -0.00000  -0.00001  -0.00002   0.04225
   D12       -2.98460  -0.00000  -0.00002   0.00001  -0.00001  -2.98461
   D13        0.01873   0.00000  -0.00001   0.00003   0.00001   0.01874
   D14       -3.12968   0.00000  -0.00001   0.00003   0.00002  -3.12967
   D15        3.11346   0.00000   0.00001   0.00003   0.00004   3.11349
   D16       -0.03495   0.00000   0.00001   0.00003   0.00004  -0.03491
   D17        3.11253  -0.00000   0.00002  -0.00001   0.00000   3.11253
   D18       -0.01641  -0.00000   0.00001  -0.00003  -0.00001  -0.01643
   D19        0.00926  -0.00000  -0.00000  -0.00001  -0.00002   0.00924
   D20       -3.11968  -0.00000  -0.00001  -0.00003  -0.00004  -3.11972
   D21       -3.13055   0.00000  -0.00002   0.00002  -0.00000  -3.13056
   D22       -0.10168  -0.00000  -0.00001  -0.00000  -0.00001  -0.10168
   D23       -0.03160   0.00000   0.00000   0.00002   0.00002  -0.03158
   D24        2.99728  -0.00000   0.00002  -0.00000   0.00002   2.99730
   D25       -0.02049   0.00000   0.00001  -0.00000   0.00001  -0.02048
   D26        3.12244   0.00000   0.00000  -0.00002  -0.00002   3.12243
   D27        3.12293   0.00000   0.00001   0.00002   0.00003   3.12296
   D28       -0.01732   0.00000   0.00001  -0.00000   0.00001  -0.01731
   D29        0.01631  -0.00000   0.00000   0.00000   0.00001   0.01631
   D30       -3.14046  -0.00000   0.00001   0.00002   0.00003  -3.14043
   D31       -3.14055   0.00000   0.00001   0.00001   0.00001  -3.14054
   D32       -0.01414   0.00000   0.00001   0.00002   0.00004  -0.01410
   D33        0.00891  -0.00000  -0.00001  -0.00001  -0.00001   0.00890
   D34       -3.13051   0.00000  -0.00001   0.00003   0.00002  -3.13049
   D35       -3.11582  -0.00000  -0.00001  -0.00001  -0.00002  -3.11584
   D36        0.02794  -0.00000  -0.00001   0.00003   0.00002   0.02796
   D37       -0.00551   0.00000   0.00001   0.00000   0.00001  -0.00550
   D38        3.13097  -0.00000   0.00000   0.00001   0.00001   3.13098
   D39       -3.14034   0.00000   0.00001   0.00000   0.00001  -3.14033
   D40       -0.00386   0.00000   0.00000   0.00000   0.00001  -0.00385
   D41        0.00027   0.00000  -0.00000  -0.00000  -0.00000   0.00027
   D42        3.14046  -0.00000   0.00000  -0.00001  -0.00001   3.14045
   D43       -3.12457  -0.00000  -0.00001  -0.00002  -0.00003  -3.12460
   D44        0.01561  -0.00000  -0.00000  -0.00003  -0.00003   0.01558
   D45       -0.02277  -0.00000   0.00001  -0.00000   0.00001  -0.02276
   D46        3.11211  -0.00000   0.00002  -0.00002  -0.00000   3.11211
   D47        3.11745   0.00000   0.00002   0.00002   0.00003   3.11748
   D48       -0.03085  -0.00000   0.00002   0.00000   0.00002  -0.03083
   D49        0.02827   0.00000  -0.00001   0.00000  -0.00001   0.02826
   D50       -3.10683   0.00000  -0.00002   0.00002   0.00000  -3.10682
   D51       -3.11552  -0.00000  -0.00001  -0.00003  -0.00004  -3.11556
   D52        0.03257  -0.00000  -0.00002  -0.00001  -0.00003   0.03254
   D53       -0.00996  -0.00000   0.00000  -0.00003  -0.00003  -0.00999
   D54        3.12748   0.00000  -0.00000   0.00002   0.00001   3.12749
   D55        3.13686  -0.00000   0.00001  -0.00003  -0.00003   3.13683
   D56       -0.00889   0.00000   0.00000   0.00001   0.00001  -0.00888
   D57        0.01245   0.00000  -0.00001   0.00003   0.00002   0.01248
   D58       -3.12512  -0.00000  -0.00000  -0.00001  -0.00001  -3.12513
   D59       -3.12771   0.00000  -0.00001   0.00004   0.00003  -3.12768
   D60        0.01790  -0.00000  -0.00001  -0.00001  -0.00001   0.01789
   D61       -2.05261  -0.00000  -0.00001   0.00000  -0.00001  -2.05262
   D62        2.13737  -0.00000  -0.00001  -0.00000  -0.00002   2.13735
   D63        0.03815   0.00000  -0.00001   0.00000  -0.00001   0.03814
   D64        1.08219  -0.00000  -0.00001  -0.00002  -0.00003   1.08216
   D65       -1.01102  -0.00000  -0.00001  -0.00002  -0.00003  -1.01105
   D66       -3.11025  -0.00000  -0.00001  -0.00001  -0.00002  -3.11027
   D67        2.08971   0.00000   0.00002   0.00006   0.00008   2.08979
   D68       -2.10114   0.00000   0.00002   0.00006   0.00007  -2.10106
   D69       -0.00668  -0.00000   0.00002   0.00006   0.00008  -0.00660
   D70       -1.05609   0.00000   0.00001   0.00011   0.00012  -1.05597
   D71        1.03624   0.00000   0.00001   0.00010   0.00011   1.03636
   D72        3.13070   0.00000   0.00001   0.00010   0.00012   3.13082
   D73        0.05101  -0.00000  -0.00008   0.00002  -0.00006   0.05095
   D74       -3.07510   0.00000  -0.00015   0.00009  -0.00006  -3.07516
   D75       -2.96325  -0.00000  -0.00003   0.00013   0.00010  -2.96315
   D76        0.19383  -0.00000  -0.00010   0.00020   0.00010   0.19392
   D77       -0.05907   0.00000   0.00005   0.00002   0.00007  -0.05900
   D78       -3.12085   0.00000   0.00010   0.00001   0.00011  -3.12074
   D79        2.95625   0.00000   0.00000  -0.00009  -0.00009   2.95616
   D80       -0.10554   0.00000   0.00005  -0.00009  -0.00004  -0.10558
   D81        0.82670  -0.00000   0.00009  -0.00014  -0.00006   0.82665
   D82       -2.18108  -0.00000   0.00007  -0.00012  -0.00005  -2.18113
   D83       -2.18358  -0.00000   0.00014  -0.00003   0.00011  -2.18347
   D84        1.09182  -0.00000   0.00012  -0.00001   0.00011   1.09194
   D85        0.01535  -0.00000   0.00003  -0.00003   0.00000   0.01535
   D86       -3.04376  -0.00000   0.00005  -0.00000   0.00005  -3.04371
   D87        3.14147  -0.00000   0.00010  -0.00010   0.00000   3.14147
   D88        0.08236  -0.00000   0.00013  -0.00007   0.00006   0.08242
   D89        0.78951   0.00000   0.00002  -0.00005  -0.00003   0.78948
   D90       -2.21144  -0.00000   0.00005  -0.00007  -0.00002  -2.21146
   D91       -2.33660   0.00000  -0.00006   0.00002  -0.00004  -2.33664
   D92        0.94563   0.00000  -0.00003   0.00000  -0.00003   0.94561
   D93       -0.07135   0.00000   0.00005   0.00000   0.00005  -0.07130
   D94       -2.87428   0.00000   0.00027   0.00009   0.00035  -2.87392
   D95        2.98874   0.00000   0.00002  -0.00002  -0.00000   2.98874
   D96        0.18582   0.00000   0.00024   0.00006   0.00030   0.18612
   D97        0.06294   0.00000  -0.00007   0.00003  -0.00004   0.06290
   D98       -3.01550   0.00000  -0.00021   0.00006  -0.00015  -3.01565
   D99        2.84079   0.00000  -0.00030  -0.00007  -0.00037   2.84042
   D100      -0.23764   0.00000  -0.00044  -0.00004  -0.00049  -0.23813
   D101       1.90746   0.00000  -0.00005   0.00006   0.00001   1.90748
   D102      -2.37616  -0.00000  -0.00006   0.00007   0.00001  -2.37615
   D103      -0.09068   0.00000  -0.00007   0.00007   0.00000  -0.09068
   D104      -0.87395   0.00000   0.00018   0.00017   0.00035  -0.87360
   D105       1.12562   0.00000   0.00017   0.00018   0.00035   1.12596
   D106      -2.87209   0.00000   0.00017   0.00017   0.00034  -2.87175
   D107       0.00267  -0.00000   0.00002  -0.00005  -0.00002   0.00264
   D108       3.06500  -0.00000  -0.00003  -0.00004  -0.00007   3.06493
   D109       3.08326  -0.00000   0.00015  -0.00007   0.00008   3.08335
   D110      -0.13759  -0.00000   0.00010  -0.00007   0.00004  -0.13755
   D111      -1.22926   0.00000   0.00033   0.00007   0.00040  -1.22886
   D112       2.04497   0.00000   0.00029   0.00014   0.00043   2.04540
   D113       1.97471   0.00000   0.00019   0.00010   0.00029   1.97500
   D114      -1.03424   0.00000   0.00015   0.00016   0.00032  -1.03393
   D115      -0.02738   0.00000   0.00000   0.00006   0.00006  -0.02732
   D116      -3.13982   0.00000   0.00002   0.00012   0.00014  -3.13968
   D117      -3.11707  -0.00000   0.00001  -0.00002  -0.00001  -3.11709
   D118       0.05367   0.00000   0.00003   0.00004   0.00007   0.05373
   D119      -3.09243  -0.00000  -0.00001  -0.00008  -0.00009  -3.09252
   D120       0.02605  -0.00000  -0.00001  -0.00004  -0.00005   0.02600
   D121       0.00661  -0.00000  -0.00001  -0.00001  -0.00003   0.00658
   D122       3.12509   0.00000  -0.00001   0.00002   0.00001   3.12510
   D123       0.04769   0.00000  -0.00003   0.00014   0.00011   0.04780
   D124       3.07414   0.00000   0.00001   0.00008   0.00009   3.07423
   D125      -3.04697   0.00000  -0.00002   0.00007   0.00004  -3.04692
   D126      -0.02052   0.00000   0.00001   0.00000   0.00002  -0.02050
   D127      -0.01701   0.00000  -0.00002   0.00002  -0.00000  -0.01701
   D128       3.09270   0.00000  -0.00004   0.00011   0.00006   3.09277
   D129      -3.08993   0.00000  -0.00001   0.00003   0.00002  -3.08991
   D130       0.01978   0.00000  -0.00004   0.00012   0.00008   0.01987
   D131      -3.10767  -0.00000   0.00001  -0.00000   0.00001  -3.10767
   D132       0.01402  -0.00000   0.00001  -0.00002  -0.00001   0.01401
   D133      -0.02233  -0.00000   0.00000  -0.00002  -0.00001  -0.02234
   D134       3.09935  -0.00000   0.00001  -0.00003  -0.00002   3.09933
   D135      -0.14641   0.00000   0.00001  -0.00006  -0.00005  -0.14646
   D136       3.10617   0.00000  -0.00002  -0.00001  -0.00002   3.10615
   D137       3.05733   0.00000   0.00002  -0.00005  -0.00003   3.05730
   D138       0.02673   0.00000  -0.00001   0.00001  -0.00000   0.02672
   D139       0.01083  -0.00000   0.00000  -0.00001  -0.00001   0.01082
   D140      -3.12532  -0.00000   0.00001  -0.00001   0.00000  -3.12532
   D141       3.12324  -0.00000  -0.00002  -0.00007  -0.00009   3.12315
   D142      -0.01291  -0.00000  -0.00001  -0.00007  -0.00008  -0.01299
   D143       0.00954   0.00000   0.00000   0.00002   0.00002   0.00957
   D144      -3.10804   0.00000  -0.00000   0.00004   0.00004  -3.10800
   D145      -3.10450  -0.00000   0.00001  -0.00002  -0.00002  -3.10452
   D146       0.06110   0.00000  -0.00000  -0.00000  -0.00000   0.06110
   D147      -0.00705  -0.00000   0.00001  -0.00001  -0.00001  -0.00706
   D148      -3.13893  -0.00000   0.00000  -0.00001  -0.00001  -3.13893
   D149       3.10412   0.00000   0.00000   0.00003   0.00004   3.10415
   D150      -0.02776   0.00000   0.00000   0.00004   0.00004  -0.02772
   D151       0.00731   0.00000   0.00001   0.00002   0.00003   0.00733
   D152       3.13771   0.00000  -0.00000   0.00004   0.00004   3.13774
   D153      -3.10242  -0.00000   0.00003  -0.00007  -0.00004  -3.10246
   D154       0.02798  -0.00000   0.00002  -0.00005  -0.00003   0.02795
   D155      -0.00074   0.00000   0.00000  -0.00001  -0.00001  -0.00075
   D156      -3.13541   0.00000   0.00001   0.00000   0.00001  -3.13540
   D157       3.11439  -0.00000   0.00001  -0.00003  -0.00002   3.11436
   D158      -0.02027  -0.00000   0.00001  -0.00002  -0.00001  -0.02028
   D159       0.00715  -0.00000  -0.00000  -0.00004  -0.00005   0.00710
   D160      -3.13573  -0.00000  -0.00000  -0.00002  -0.00002  -3.13575
   D161      -3.13996  -0.00000  -0.00001  -0.00005  -0.00006  -3.14002
   D162       0.00034  -0.00000  -0.00001  -0.00002  -0.00003   0.00032
   D163      -0.00896   0.00000   0.00000   0.00005   0.00006  -0.00891
   D164       3.13396   0.00000  -0.00000   0.00003   0.00002   3.13399
   D165       3.12273   0.00000   0.00000   0.00005   0.00005   3.12278
   D166      -0.01753   0.00000  -0.00000   0.00002   0.00002  -0.01751
   D167       0.00535  -0.00000   0.00001  -0.00005  -0.00004   0.00531
   D168      -3.14064  -0.00000  -0.00001   0.00001  -0.00000  -3.14064
   D169      -3.12481  -0.00000   0.00002  -0.00007  -0.00005  -3.12486
   D170       0.01239  -0.00000   0.00000  -0.00001  -0.00001   0.01238
   D171      -0.00859   0.00000  -0.00001   0.00004   0.00003  -0.00856
   D172       3.13726  -0.00000   0.00000  -0.00001  -0.00001   3.13725
   D173       3.12599   0.00000  -0.00002   0.00003   0.00001   3.12600
   D174      -0.01135  -0.00000  -0.00000  -0.00002  -0.00003  -0.01138
   D175      -1.04182  -0.00000  -0.00001   0.00006   0.00005  -1.04176
   D176      -3.13698   0.00000  -0.00001   0.00007   0.00006  -3.13692
   D177       1.05256   0.00000  -0.00001   0.00008   0.00006   1.05263
   D178       2.09843   0.00000  -0.00001   0.00009   0.00008   2.09851
   D179       0.00326   0.00000  -0.00001   0.00010   0.00009   0.00335
   D180      -2.09038   0.00000  -0.00001   0.00010   0.00010  -2.09028
   D181       2.09947  -0.00000   0.00006  -0.00009  -0.00003   2.09944
   D182       0.00418  -0.00000   0.00006  -0.00009  -0.00004   0.00414
   D183      -2.09121  -0.00000   0.00006  -0.00010  -0.00004  -2.09126
   D184      -1.04657   0.00000   0.00005  -0.00004   0.00001  -1.04656
   D185       3.14132   0.00000   0.00004  -0.00004   0.00001   3.14133
   D186       1.04593   0.00000   0.00004  -0.00004   0.00000   1.04593
   D187       3.13358  -0.00000   0.00001   0.00003   0.00005   3.13362
   D188      -1.05547   0.00000   0.00001   0.00004   0.00005  -1.05542
   D189       1.03943   0.00000   0.00001   0.00004   0.00005   1.03948
   D190      -1.05374   0.00000   0.00001   0.00003   0.00005  -1.05369
   D191       1.04040   0.00000   0.00001   0.00004   0.00005   1.04045
   D192       3.13529   0.00000   0.00001   0.00004   0.00005   3.13535
   D193       0.99689  -0.00000   0.00001   0.00003   0.00004   0.99693
   D194       3.09103   0.00000   0.00001   0.00004   0.00005   3.09108
   D195      -1.09726  -0.00000   0.00001   0.00004   0.00005  -1.09722
   D196       1.05542   0.00000   0.00001   0.00001   0.00002   1.05544
   D197      -3.13711  -0.00000   0.00001   0.00001   0.00001  -3.13710
   D198      -1.04490  -0.00000   0.00001   0.00000   0.00001  -1.04489
   D199      -1.03166   0.00000   0.00000   0.00001   0.00001  -1.03165
   D200       1.05899   0.00000   0.00000   0.00001   0.00001   1.05900
   D201      -3.13199   0.00000   0.00000   0.00001   0.00001  -3.13197
   D202      -3.08292   0.00000   0.00001   0.00001   0.00001  -3.08291
   D203      -0.99227  -0.00000   0.00001   0.00000   0.00001  -0.99226
   D204       1.09994  -0.00000   0.00001   0.00000   0.00001   1.09995
   D205      -1.06576  -0.00000  -0.00001  -0.00007  -0.00008  -1.06584
   D206       1.05927  -0.00000  -0.00001  -0.00006  -0.00007   1.05920
   D207       3.13884   0.00000  -0.00001  -0.00006  -0.00007   3.13877
   D208       1.03361  -0.00000  -0.00001  -0.00007  -0.00007   1.03353
   D209      -3.12455  -0.00000  -0.00001  -0.00006  -0.00007  -3.12462
   D210      -1.04498  -0.00000  -0.00001  -0.00006  -0.00007  -1.04504
   D211       3.10083  -0.00000  -0.00001  -0.00007  -0.00007   3.10075
   D212      -1.05733  -0.00000  -0.00001  -0.00006  -0.00007  -1.05739
   D213       1.02225  -0.00000  -0.00001  -0.00006  -0.00007   1.02218
   D214       1.03390  -0.00000  -0.00000  -0.00003  -0.00004   1.03386
   D215       3.12636  -0.00000  -0.00000  -0.00003  -0.00004   3.12632
   D216      -1.06725  -0.00000  -0.00000  -0.00004  -0.00004  -1.06729
   D217      -1.05697  -0.00000  -0.00001  -0.00003  -0.00004  -1.05701
   D218       1.03549  -0.00000  -0.00001  -0.00003  -0.00004   1.03545
   D219       3.12506  -0.00000  -0.00000  -0.00004  -0.00004   3.12502
   D220      -3.10651   0.00000  -0.00000  -0.00003  -0.00004  -3.10654
   D221      -1.01405   0.00000  -0.00000  -0.00003  -0.00004  -1.01408
   D222       1.07553   0.00000  -0.00000  -0.00003  -0.00004   1.07550
   D223       3.13250   0.00000  -0.00000  -0.00001  -0.00002   3.13248
   D224      -1.05889   0.00000  -0.00000  -0.00001  -0.00002  -1.05891
   D225       1.03983   0.00000  -0.00000  -0.00001  -0.00001   1.03981
   D226      -1.05752  -0.00000  -0.00000  -0.00002  -0.00002  -1.05754
   D227       1.03428  -0.00000  -0.00000  -0.00002  -0.00002   1.03425
   D228       3.13300  -0.00000  -0.00000  -0.00001  -0.00002   3.13298
   D229       0.99171  -0.00000  -0.00000  -0.00002  -0.00002   0.99169
   D230       3.08350  -0.00000  -0.00000  -0.00002  -0.00002   3.08348
   D231      -1.10096   0.00000  -0.00001  -0.00001  -0.00002  -1.10098
   D232      -1.06098  -0.00000   0.00002   0.00000   0.00002  -1.06096
   D233       1.06531  -0.00000   0.00002   0.00000   0.00002   1.06534
   D234      -3.13976  -0.00000   0.00002   0.00000   0.00002  -3.13973
   D235       3.11091   0.00000   0.00002   0.00001   0.00003   3.11094
   D236      -1.04598   0.00000   0.00002   0.00001   0.00003  -1.04595
   D237       1.03214   0.00000   0.00002   0.00001   0.00003   1.03216
   D238       1.04596   0.00000   0.00002   0.00001   0.00003   1.04600
   D239      -3.11093   0.00000   0.00002   0.00001   0.00003  -3.11089
   D240      -1.03281   0.00000   0.00002   0.00001   0.00003  -1.03278
   D241       1.05452  -0.00000  -0.00000   0.00001   0.00000   1.05452
   D242      -3.13644  -0.00000  -0.00000   0.00001   0.00000  -3.13643
   D243      -1.04355  -0.00000  -0.00000   0.00001   0.00000  -1.04354
   D244      -3.08734   0.00000  -0.00000   0.00002   0.00002  -3.08733
   D245      -0.99511   0.00000  -0.00000   0.00002   0.00002  -0.99509
   D246       1.09778   0.00000  -0.00000   0.00002   0.00002   1.09779
   D247      -1.03818   0.00000   0.00000   0.00001   0.00001  -1.03817
   D248       1.05406  -0.00000   0.00000   0.00001   0.00001   1.05407
   D249      -3.13624  -0.00000   0.00000   0.00001   0.00001  -3.13623
   D250      -1.06360  -0.00000   0.00000  -0.00009  -0.00009  -1.06369
   D251       1.06169  -0.00000   0.00000  -0.00009  -0.00009   1.06160
   D252       3.14072  -0.00000   0.00000  -0.00009  -0.00009   3.14063
   D253       3.11156  -0.00000   0.00000  -0.00009  -0.00009   3.11147
   D254      -1.04634  -0.00000   0.00000  -0.00009  -0.00009  -1.04643
   D255       1.03269  -0.00000   0.00001  -0.00009  -0.00009   1.03260
   D256       1.04637  -0.00000  -0.00000  -0.00008  -0.00008   1.04629
   D257      -3.11153   0.00000   0.00000  -0.00008  -0.00008  -3.11161
   D258      -1.03250  -0.00000   0.00000  -0.00008  -0.00008  -1.03258
   D259       1.05389   0.00000   0.00001   0.00007   0.00008   1.05397
   D260      -3.13830   0.00000   0.00001   0.00007   0.00007  -3.13822
   D261      -1.04609   0.00000   0.00001   0.00007   0.00007  -1.04602
   D262      -3.13791   0.00000   0.00000   0.00006   0.00007  -3.13784
   D263      -1.04691   0.00000   0.00000   0.00006   0.00006  -1.04685
   D264       1.04529   0.00000   0.00000   0.00006   0.00006   1.04536
   D265      -1.08807  -0.00000   0.00001   0.00006   0.00006  -1.08800
   D266       1.00293  -0.00000   0.00001   0.00005   0.00006   1.00299
   D267       3.09514  -0.00000   0.00001   0.00005   0.00006   3.09519
   D268       1.05498   0.00000   0.00000  -0.00001  -0.00001   1.05497
   D269      -3.13720   0.00000   0.00000  -0.00001  -0.00001  -3.13720
   D270      -1.04519   0.00000   0.00000  -0.00001  -0.00001  -1.04519
   D271      -3.08862  -0.00000   0.00000  -0.00003  -0.00003  -3.08864
   D272      -0.99761  -0.00000   0.00000  -0.00003  -0.00003  -0.99763
   D273       1.09440  -0.00000   0.00000  -0.00003  -0.00003   1.09437
   D274      -1.03695  -0.00000   0.00000  -0.00002  -0.00002  -1.03697
   D275       1.05406  -0.00000   0.00000  -0.00002  -0.00002   1.05404
   D276      -3.13712  -0.00000   0.00000  -0.00002  -0.00002  -3.13714
   D277      -1.06080   0.00000  -0.00001   0.00010   0.00009  -1.06071
   D278       1.06500   0.00000  -0.00001   0.00009   0.00008   1.06508
   D279      -3.13915   0.00000  -0.00001   0.00010   0.00009  -3.13906
   D280       3.11272   0.00000  -0.00001   0.00011   0.00010   3.11282
   D281      -1.04466   0.00000  -0.00001   0.00010   0.00009  -1.04457
   D282       1.03438   0.00000  -0.00001   0.00011   0.00010   1.03448
   D283       1.04502   0.00000  -0.00001   0.00010   0.00009   1.04511
   D284      -3.11236   0.00000  -0.00001   0.00009   0.00008  -3.11228
   D285      -1.03332   0.00000  -0.00001   0.00010   0.00009  -1.03323
   D286      -1.05460  -0.00000  -0.00000  -0.00004  -0.00004  -1.05464
   D287       1.04252  -0.00000   0.00000  -0.00004  -0.00004   1.04248
   D288       3.13556  -0.00000  -0.00000  -0.00004  -0.00004   3.13551
   D289       1.03942  -0.00000  -0.00000  -0.00003  -0.00003   1.03939
   D290       3.13654   0.00000  -0.00000  -0.00003  -0.00003   3.13650
   D291      -1.05361  -0.00000  -0.00000  -0.00003  -0.00003  -1.05365
   D292       3.09070   0.00000  -0.00000  -0.00002  -0.00002   3.09067
   D293      -1.09537   0.00000  -0.00000  -0.00002  -0.00002  -1.09539
   D294       0.99766   0.00000  -0.00000  -0.00002  -0.00002   0.99764
   D295      -1.20362  -0.00001   0.00003  -0.00027  -0.00023  -1.20385
   D296       1.90954  -0.00001   0.00002  -0.00030  -0.00027   1.90927
   D297       3.03784   0.00000   0.00003  -0.00027  -0.00024   3.03760
   D298      -0.13218  -0.00000   0.00001  -0.00030  -0.00028  -0.13247
   D299       0.78029   0.00000   0.00004  -0.00025  -0.00021   0.78008
   D300      -2.38974  -0.00000   0.00003  -0.00028  -0.00025  -2.38999
   D301       3.11383  -0.00000   0.00001  -0.00006  -0.00005   3.11378
   D302      -0.04120  -0.00000   0.00000  -0.00006  -0.00006  -0.04126
   D303       0.00124  -0.00000   0.00003  -0.00003  -0.00001   0.00123
   D304       3.12939  -0.00000   0.00001  -0.00003  -0.00002   3.12938
   D305      -3.11450   0.00000  -0.00002   0.00006   0.00004  -3.11446
   D306       0.02181   0.00000  -0.00001   0.00005   0.00004   0.02185
   D307      -0.00197   0.00000  -0.00003   0.00003  -0.00001  -0.00197
   D308       3.13434  -0.00000  -0.00002   0.00001  -0.00000   3.13434
   D309      -0.00126  -0.00000  -0.00000   0.00001   0.00001  -0.00125
   D310       3.13565   0.00000  -0.00001   0.00001  -0.00000   3.13565
   D311      -3.12929  -0.00000   0.00001   0.00001   0.00002  -3.12927
   D312       0.00761  -0.00000   0.00001   0.00001   0.00001   0.00762
   D313       0.00272  -0.00000   0.00002  -0.00000   0.00002   0.00274
   D314       3.13379  -0.00000   0.00002  -0.00001   0.00001   3.13381
   D315      -3.13347   0.00000  -0.00000   0.00001   0.00001  -3.13346
   D316      -0.00240   0.00000   0.00001   0.00000   0.00001  -0.00239
   D317       0.00204   0.00000  -0.00002   0.00002  -0.00000   0.00204
   D318      -3.13745   0.00000  -0.00001   0.00001  -0.00001  -3.13745
   D319      -3.13484   0.00000  -0.00001   0.00002   0.00001  -3.13483
   D320       0.00885   0.00000  -0.00000   0.00001   0.00001   0.00886
   D321      -0.00279  -0.00000   0.00001  -0.00002  -0.00001  -0.00280
   D322       3.13670  -0.00000   0.00000  -0.00001  -0.00001   3.13670
   D323      -3.13379  -0.00000   0.00000  -0.00001  -0.00001  -3.13380
   D324       0.00570  -0.00000  -0.00001  -0.00000  -0.00001   0.00570
   D325       0.23183  -0.00000   0.00003   0.00001   0.00004   0.23187
   D326      -2.97988  -0.00000   0.00003   0.00000   0.00003  -2.97985
   D327      -3.03026  -0.00000   0.00000   0.00002   0.00003  -3.03023
   D328       0.04121  -0.00000  -0.00000   0.00002   0.00002   0.04123
   D329      -0.08566  -0.00000  -0.00002   0.00000  -0.00002  -0.08568
   D330       2.98483  -0.00000  -0.00003  -0.00002  -0.00005   2.98478
   D331      -3.10817   0.00000   0.00001  -0.00001  -0.00000  -3.10818
   D332      -0.03768  -0.00000   0.00000  -0.00003  -0.00003  -0.03771
   D333      -3.14126  -0.00000   0.00000  -0.00001  -0.00001  -3.14127
   D334      -0.00726  -0.00000  -0.00000  -0.00003  -0.00004  -0.00730
   D335       0.07761  -0.00000   0.00001  -0.00001   0.00000   0.07761
   D336      -3.07157  -0.00000   0.00000  -0.00003  -0.00003  -3.07160
   D337      -0.02856   0.00000   0.00000  -0.00000   0.00000  -0.02856
   D338       3.13641   0.00000  -0.00000   0.00001   0.00001   3.13642
   D339       3.04977   0.00000  -0.00000  -0.00001  -0.00001   3.04976
   D340      -0.06844   0.00000  -0.00001   0.00001   0.00000  -0.06844
   D341       3.09343  -0.00000  -0.00001  -0.00003  -0.00003   3.09339
   D342      -0.05031  -0.00000  -0.00000  -0.00002  -0.00002  -0.05034
   D343       0.03021  -0.00000   0.00000  -0.00000  -0.00000   0.03021
   D344      -3.11353   0.00000   0.00000   0.00000   0.00001  -3.11352
   D345       0.01986   0.00000   0.00000   0.00003   0.00003   0.01990
   D346      -3.10286   0.00000   0.00000   0.00002   0.00003  -3.10283
   D347       3.09767  -0.00000  -0.00000   0.00001   0.00001   3.09768
   D348      -0.02505  -0.00000  -0.00000   0.00000   0.00000  -0.02505
   D349      -0.03091   0.00000  -0.00000  -0.00000  -0.00001  -0.03092
   D350       3.11060   0.00000  -0.00001  -0.00001  -0.00002   3.11058
   D351       3.11820   0.00000   0.00000   0.00002   0.00002   3.11822
   D352      -0.02347   0.00000  -0.00001   0.00001   0.00001  -0.02347
   D353       0.00528  -0.00000  -0.00000  -0.00002  -0.00002   0.00526
   D354       3.12438  -0.00000  -0.00001  -0.00001  -0.00001   3.12437
   D355       3.11891  -0.00000   0.00000  -0.00004  -0.00003   3.11888
   D356      -0.04517  -0.00000  -0.00000  -0.00003  -0.00003  -0.04519
   D357       0.00985   0.00000  -0.00000   0.00000   0.00000   0.00985
   D358      -3.13198   0.00000  -0.00000   0.00001   0.00001  -3.13197
   D359      -3.10087   0.00000  -0.00001   0.00002   0.00002  -3.10085
   D360       0.04049   0.00000  -0.00001   0.00003   0.00002   0.04051
   D361      -0.01200   0.00000  -0.00000   0.00001   0.00001  -0.01199
   D362       3.12813   0.00000   0.00000   0.00001   0.00002   3.12815
   D363       3.13172  -0.00000  -0.00000   0.00000   0.00000   3.13172
   D364      -0.01134   0.00000   0.00000   0.00000   0.00001  -0.01133
   D365       0.00055  -0.00000   0.00000  -0.00001  -0.00001   0.00055
   D366       3.13446  -0.00000  -0.00000  -0.00001  -0.00001   3.13445
   D367      -3.11621   0.00000   0.00001  -0.00002  -0.00002  -3.11623
   D368       0.01770  -0.00000   0.00000  -0.00002  -0.00002   0.01768
   D369      -0.02500   0.00000  -0.00000   0.00002   0.00001  -0.02499
   D370       3.11428   0.00000   0.00000   0.00001   0.00001   3.11429
   D371       3.11667   0.00000   0.00000   0.00002   0.00002   3.11669
   D372      -0.02723   0.00000   0.00001   0.00002   0.00002  -0.02721
   D373       0.03532  -0.00000   0.00001  -0.00001  -0.00001   0.03531
   D374      -3.10404  -0.00000   0.00000  -0.00001  -0.00001  -3.10404
   D375      -3.10603  -0.00000   0.00001  -0.00002  -0.00001  -3.10604
   D376       0.03780  -0.00000   0.00001  -0.00002  -0.00001   0.03778
   D377      -0.01144  -0.00000   0.00000  -0.00002  -0.00002  -0.01145
   D378       3.13396   0.00000   0.00000   0.00001   0.00002   3.13398
   D379       3.13165  -0.00000  -0.00000  -0.00002  -0.00002   3.13163
   D380      -0.00614   0.00000  -0.00000   0.00001   0.00001  -0.00613
   D381       0.01706   0.00000  -0.00000   0.00002   0.00001   0.01708
   D382      -3.12821  -0.00000  -0.00000  -0.00001  -0.00002  -3.12822
   D383      -3.11675   0.00000   0.00000   0.00002   0.00002  -3.11673
   D384       0.02116  -0.00000   0.00000  -0.00001  -0.00001   0.02115
   D385       0.02826  -0.00000   0.00000  -0.00003  -0.00003   0.02823
   D386       2.12845  -0.00000   0.00000  -0.00004  -0.00003   2.12842
   D387      -2.06198  -0.00000   0.00000  -0.00003  -0.00003  -2.06202
   D388      -3.11567  -0.00000   0.00000  -0.00004  -0.00003  -3.11570
   D389      -1.01548  -0.00000   0.00001  -0.00004  -0.00003  -1.01551
   D390       1.07727  -0.00000   0.00000  -0.00004  -0.00004   1.07724
   D391      -0.01627  -0.00000  -0.00004   0.00004  -0.00000  -0.01628
   D392       2.08038  -0.00000  -0.00004   0.00004  -0.00000   2.08038
   D393      -2.11115  -0.00000  -0.00004   0.00004  -0.00001  -2.11116
   D394       3.12917  -0.00000  -0.00004   0.00007   0.00003   3.12920
   D395      -1.05736  -0.00000  -0.00004   0.00007   0.00003  -1.05733
   D396       1.03430  -0.00000  -0.00004   0.00007   0.00003   1.03432
   D397      -1.06261  -0.00000  -0.00001   0.00001   0.00000  -1.06261
   D398       1.06393  -0.00000  -0.00001   0.00001   0.00000   1.06393
   D399      -3.14077  -0.00000  -0.00001   0.00001   0.00000  -3.14076
   D400       3.10453  -0.00000  -0.00001   0.00001   0.00001   3.10454
   D401      -1.05211   0.00000  -0.00001   0.00001   0.00001  -1.05210
   D402       1.02638  -0.00000  -0.00001   0.00001   0.00001   1.02639
   D403       1.03443  -0.00000  -0.00001   0.00001   0.00001   1.03444
   D404      -3.12221   0.00000  -0.00001   0.00002   0.00001  -3.12220
   D405      -1.04372   0.00000  -0.00001   0.00002   0.00001  -1.04371
   D406      -1.04684  -0.00000   0.00000   0.00001   0.00001  -1.04683
   D407       1.05566  -0.00000   0.00000   0.00001   0.00001   1.05567
   D408      -3.13792  -0.00000   0.00000   0.00001   0.00001  -3.13791
   D409       1.09793   0.00000   0.00000   0.00001   0.00001   1.09794
   D410      -3.08275   0.00000   0.00000   0.00001   0.00001  -3.08274
   D411      -0.99314   0.00000   0.00000   0.00001   0.00001  -0.99313
   D412      -3.13130  -0.00000   0.00000   0.00001   0.00001  -3.13130
   D413      -1.02880   0.00000   0.00000   0.00001   0.00001  -1.02879
   D414       1.06080   0.00000   0.00000   0.00001   0.00001   1.06082
   D415       1.03837   0.00000   0.00000   0.00002   0.00003   1.03840
   D416       3.13191   0.00000   0.00000   0.00002   0.00002   3.13193
   D417      -1.05824   0.00000   0.00000   0.00002   0.00003  -1.05822
   D418      -1.09721  -0.00000   0.00000   0.00002   0.00002  -1.09718
   D419       0.99633  -0.00000   0.00000   0.00002   0.00002   0.99635
   D420       3.08936  -0.00000   0.00000   0.00002   0.00002   3.08938
   D421       3.13229   0.00000   0.00000   0.00002   0.00002   3.13231
   D422      -1.05737   0.00000   0.00000   0.00002   0.00002  -1.05734
   D423       1.03567   0.00000   0.00000   0.00002   0.00002   1.03569
   D424      -1.05802  -0.00000  -0.00001  -0.00001  -0.00001  -1.05803
   D425       1.06989  -0.00000  -0.00001  -0.00000  -0.00001   1.06988
   D426      -3.13628  -0.00000  -0.00001  -0.00001  -0.00001  -3.13629
   D427       3.11619  -0.00000  -0.00001  -0.00000  -0.00001   3.11618
   D428      -1.03909  -0.00000  -0.00000  -0.00000  -0.00001  -1.03910
   D429       1.03792  -0.00000  -0.00000  -0.00000  -0.00001   1.03791
   D430       1.04799  -0.00000  -0.00001   0.00000  -0.00001   1.04798
   D431      -3.10729  -0.00000  -0.00001   0.00000  -0.00000  -3.10729
   D432      -1.03028  -0.00000  -0.00001   0.00000  -0.00000  -1.03028
   D433       1.04018   0.00000   0.00001  -0.00002  -0.00000   1.04018
   D434       3.13175   0.00000   0.00001  -0.00002  -0.00000   3.13174
   D435      -1.06231  -0.00000   0.00001  -0.00002  -0.00000  -1.06231
   D436      -3.10105   0.00000   0.00001  -0.00001   0.00000  -3.10105
   D437      -1.00949   0.00000   0.00001  -0.00001   0.00000  -1.00949
   D438       1.07964   0.00000   0.00002  -0.00002  -0.00000   1.07964
   D439      -1.04839   0.00000   0.00002  -0.00002  -0.00000  -1.04839
   D440       1.04318   0.00000   0.00001  -0.00002  -0.00000   1.04317
   D441       3.13231  -0.00000   0.00002  -0.00002  -0.00001   3.13230
   D442      -1.06014   0.00000   0.00001  -0.00002  -0.00001  -1.06015
[...]
 Alpha virt. eigenvalues --    2.64167   2.64346   2.64449   2.64587   2.64934
 Alpha virt. eigenvalues --    2.65007   2.65221   2.65502   2.65672   2.66074
 Alpha virt. eigenvalues --    2.66092   2.66368   2.66499   2.66627   2.66956
 Alpha virt. eigenvalues --    2.66997   2.67255   2.67345   2.67617   2.67730
 Alpha virt. eigenvalues --    2.67854   2.67987   2.68012   2.68367   2.68716
 Alpha virt. eigenvalues --    2.68941   2.69252   2.69278   2.69512   2.69687
 Alpha virt. eigenvalues --    2.69729   2.69881   2.70530   2.71006   2.71245
 Alpha virt. eigenvalues --    2.71854   2.72307   2.72799   2.73167   2.74570
 Alpha virt. eigenvalues --    2.74885   2.74951   2.75297   2.75533   2.75717
 Alpha virt. eigenvalues --    2.75820   2.76141   2.76188   2.76509   2.77424
 Alpha virt. eigenvalues --    2.78109   2.78292   2.78692   2.79554   2.79608
 Alpha virt. eigenvalues --    2.79859   2.79904   2.79936   2.79984   2.80020
 Alpha virt. eigenvalues --    2.80119   2.80166   2.80316   2.80443   2.80626
 Alpha virt. eigenvalues --    2.80701   2.80885   2.81025   2.81260   2.81376
 Alpha virt. eigenvalues --    2.81683   2.81931   2.82070   2.82257   2.82659
 Alpha virt. eigenvalues --    2.83066   2.83607   2.83942   2.84073   2.84196
 Alpha virt. eigenvalues --    2.84638   2.85215   2.85317   2.85840   2.86103
 Alpha virt. eigenvalues --    2.86699   2.87467   2.88245   2.88417   2.88743
 Alpha virt. eigenvalues --    2.89466   2.90417   2.90736   2.91393   2.91775
 Alpha virt. eigenvalues --    2.92148   2.92387   2.92434   2.92542   2.92685
 Alpha virt. eigenvalues --    2.92873   2.92974   2.93071   2.93074   2.93307
 Alpha virt. eigenvalues --    2.93423   2.93515   2.93766   2.93824   2.93950
 Alpha virt. eigenvalues --    2.94213   2.94279   2.94834   2.95023   2.95573
 Alpha virt. eigenvalues --    2.95831   2.96665   2.97493   2.98167   2.98652
 Alpha virt. eigenvalues --    2.99076   2.99144   2.99404   2.99562   2.99726
 Alpha virt. eigenvalues --    2.99735   2.99791   3.00087   3.00283   3.00589
 Alpha virt. eigenvalues --    3.00751   3.01841   3.01961   3.02275   3.02319
 Alpha virt. eigenvalues --    3.02679   3.02846   3.03005   3.03348   3.04696
 Alpha virt. eigenvalues --    3.05398   3.05865   3.06094   3.09087   3.09160
 Alpha virt. eigenvalues --    3.09321   3.09424   3.09709   3.09989   3.10554
 Alpha virt. eigenvalues --    3.12298   3.16504   3.16990   3.18018   3.18231
 Alpha virt. eigenvalues --    3.18981   3.21828   3.22038   3.22136   3.23011
 Alpha virt. eigenvalues --    3.23900   3.23921   3.24353   3.24507   3.24796
 Alpha virt. eigenvalues --    3.24809   3.25273   3.26472   3.26691   3.26966
 Alpha virt. eigenvalues --    3.28833   3.29575   3.29638   3.29690   3.29851
 Alpha virt. eigenvalues --    3.30043   3.30146   3.30179   3.30251   3.30767
 Alpha virt. eigenvalues --    3.30957   3.31227   3.31384   3.31424   3.31819
 Alpha virt. eigenvalues --    3.33498   3.34356   3.36151   3.36345   3.37019
 Alpha virt. eigenvalues --    3.37089   3.38587   3.40219   3.40928   3.41042
 Alpha virt. eigenvalues --    3.41444   3.42094   3.43112   3.45521   3.45836
 Alpha virt. eigenvalues --    3.47225   3.48222   3.48263   3.48337   3.48422
 Alpha virt. eigenvalues --    3.48616   3.48692   3.48920   3.49070   3.49186
 Alpha virt. eigenvalues --    3.49249   3.49472   3.49686   3.49702   3.49760
 Alpha virt. eigenvalues --    3.49877   3.50287   3.50337   3.50465   3.50598
 Alpha virt. eigenvalues --    3.50781   3.50817   3.50871   3.50967   3.51046
 Alpha virt. eigenvalues --    3.51116   3.51489   3.51592   3.51742   3.52135
 Alpha virt. eigenvalues --    3.56911   3.57184   3.57537   3.57626   3.57702
 Alpha virt. eigenvalues --    3.57951   3.57981   3.58326   3.58403   3.58495
 Alpha virt. eigenvalues --    3.59908   3.60085   3.60403   3.60849   3.60903
 Alpha virt. eigenvalues --    3.61000   3.65435   3.79514   3.79719   3.80163
 Alpha virt. eigenvalues --    3.88092   3.88306   3.88998   3.90493   3.97401
 Alpha virt. eigenvalues --    4.12110   4.16095   4.17021   4.18092   4.18399
 Alpha virt. eigenvalues --    4.19950   4.22138   4.22683   4.22927   4.23457
 Alpha virt. eigenvalues --    4.24299   4.24773   4.25719   4.26447   4.27915
 Alpha virt. eigenvalues --    4.28205   4.29116   4.29958   4.30242   4.30979
 Alpha virt. eigenvalues --    4.31131   4.32381   4.33080   4.34550   4.36041
 Alpha virt. eigenvalues --    4.38644   4.43002   4.44753   4.44929   4.45058
 Alpha virt. eigenvalues --    4.45292   4.45542   4.46028   4.46145   4.46628
 Alpha virt. eigenvalues --    4.48542   4.50385   4.51300   4.52101   4.55528
 Alpha virt. eigenvalues --    4.55723   4.57124   4.59418   4.59730   4.59994
 Alpha virt. eigenvalues --    4.60620   4.60671   4.60857   4.60926   4.60996
 Alpha virt. eigenvalues --    4.61106   4.61303   4.61531   4.61799   4.62302
 Alpha virt. eigenvalues --    4.64680   4.65993   4.67050   4.67066   4.67331
 Alpha virt. eigenvalues --    4.68017   4.68306   4.69038   4.78687   4.78981
 Alpha virt. eigenvalues --    4.79030   4.79799   4.80033   4.80350   4.86054
 Alpha virt. eigenvalues --    4.89498   4.92904   4.93464   4.95443   5.00322
 Alpha virt. eigenvalues --    5.01275   5.03458
          Condensed to atoms (all electrons):
 Mulliken charges:
               1
     1  C    0.304980
     2  C    0.304099
     3  C   -0.142848
     4  C    0.026522
     5  C   -0.168377
     6  C    0.032775
     7  C   -0.179283
     8  H    0.137407
     9  C   -0.197441
    10  C   -0.185093
    11  H    0.134629
    12  C   -0.199191
    13  C    0.122045
    14  H    0.128557
    15  H    0.122917
    16  C    0.120087
    17  H    0.123034
    18  H    0.125520
    19  C    0.221209
    20  C    0.259506
    21  C   -0.176694
    22  C   -0.243366
    23  C    0.228616
    24  C   -0.142985
    25  H    0.219651
    26  C    0.299155
    27  C    0.301057
    28  C   -0.116619
    29  C    0.011286
    30  C   -0.153661
    31  C    0.021727
    32  C   -0.179372
    33  H    0.146633
    34  C   -0.209600
    35  C   -0.182060
    36  H    0.133535
    37  C   -0.205707
    38  C    0.126978
    39  H    0.123243
    40  H    0.121134
    41  C    0.119674
    42  H    0.118553
    43  H    0.125151
    44  C   -0.068032
    45  C   -0.068191
    46  N   -0.749756
    47  N   -0.752994
    48  C   -0.067283
    49  C   -0.074292
    50  S    1.203300
    51  C   -0.199648
    52  C   -0.120543
    53  C   -0.113343
    54  C   -0.140588
    55  H    0.171523
    56  C   -0.126810
    57  H    0.193399
    58  C   -0.121533
    59  H    0.148891
    60  H    0.156994
    61  H    0.147277
    62  O   -0.560704
    63  O   -0.566985
    64  H    0.190927
    65  C   -0.363810
    66  H    0.125274
    67  H    0.122920
    68  H    0.135942
    69  C   -0.385068
    70  H    0.126673
    71  H    0.130944
    72  H    0.127224
    73  C   -0.365295
    74  H    0.129463
    75  H    0.124652
    76  H    0.124669
    77  C   -0.364431
    78  H    0.124517
    79  H    0.122405
    80  H    0.133997
    81  C   -0.381716
    82  H    0.128905
    83  H    0.128820
    84  H    0.125713
    85  C   -0.364016
    86  H    0.127885
    87  H    0.136764
    88  H    0.121208
    89  C   -0.367602
    90  H    0.124500
    91  H    0.124361
    92  H    0.136015
    93  C   -0.364221
    94  H    0.123506
    95  H    0.124382
    96  H    0.136893
    97  C   -0.386299
    98  H    0.132024
    99  H    0.128609
   100  H    0.127524
   101  C   -0.364604
   102  H    0.121721
   103  H    0.124624
   104  H    0.136957
   105  C   -0.364525
   106  H    0.121795
   107  H    0.123034
   108  H    0.136201
   109  C   -0.393038
   110  H    0.139168
   111  H    0.131010
   112  H    0.125382
   113  N   -0.754384
   114  C    0.305640
   115  C    0.303932
   116  C   -0.142648
   117  C    0.028297
   118  C   -0.169734
   119  C    0.027919
   120  C   -0.178950
   121  H    0.127468
   122  C   -0.198391
   123  C   -0.183579
   124  H    0.145329
   125  C   -0.199950
   126  C    0.121146
   127  H    0.126126
   128  H    0.122781
   129  C    0.119412
   130  H    0.126761
   131  H    0.124226
   132  C   -0.067684
   133  C   -0.067973
   134  C   -0.393609
   135  C   -0.364436
   136  C   -0.364960
   137  C   -0.387295
   138  C   -0.367135
   139  C   -0.364503
   140  H    0.139466
   141  H    0.129693
   142  H    0.124971
   143  H    0.135663
   144  H    0.122821
   145  H    0.122460
   146  H    0.136732
   147  H    0.121024
   148  H    0.125220
   149  H    0.134501
   150  H    0.129556
   151  H    0.126778
   152  H    0.123276
   153  H    0.123930
   154  H    0.135656
   155  H    0.123209
   156  H    0.138266
   157  H    0.122923
 Sum of Mulliken charges =  -0.00000
 Mulliken charges with hydrogens summed into heavy atoms:
               1
     1  C    0.304980
     2  C    0.304099
     3  C   -0.005442
     4  C    0.026522
     5  C   -0.033748
     6  C    0.032775
     7  C   -0.050726
     9  C   -0.074524
    10  C   -0.062059
    12  C   -0.073671
    13  C    0.122045
    16  C    0.120087
    19  C    0.221209
    20  C    0.259506
    21  C    0.042957
    22  C   -0.243366
    23  C    0.228616
    24  C    0.047942
    26  C    0.299155
    27  C    0.301057
    28  C    0.030014
    29  C    0.011286
    30  C   -0.020126
    31  C    0.021727
    32  C   -0.056128
    34  C   -0.088467
    35  C   -0.063507
    37  C   -0.080556
    38  C    0.126978
    41  C    0.119674
    44  C   -0.068032
    45  C   -0.068191
    46  N   -0.749756
    47  N   -0.752994
    48  C   -0.067283
    49  C   -0.074292
    50  S    1.203300
    51  C   -0.199648
    52  C    0.050980
    53  C    0.080057
    54  C    0.008303
    56  C    0.030184
    58  C    0.025743
    62  O   -0.560704
    63  O   -0.566985
    65  C    0.020327
    69  C   -0.000226
    73  C    0.013490
    77  C    0.016488
    81  C    0.001722
    85  C    0.021841
    89  C    0.017275
    93  C    0.020560
    97  C    0.001857
   101  C    0.018698
   105  C    0.016505
   109  C    0.002522
   113  N   -0.754384
   114  C    0.305640
   115  C    0.303932
   116  C   -0.015180
   117  C    0.028297
   118  C   -0.024404
   119  C    0.027919
   120  C   -0.052825
   122  C   -0.075611
   123  C   -0.056818
   125  C   -0.075724
   126  C    0.121146
   129  C    0.119412
   132  C   -0.067684
   133  C   -0.067973
   134  C    0.000521
   135  C    0.016508
   136  C    0.018016
   137  C    0.003540
   138  C    0.015727
   139  C    0.019895
 Electronic spatial extent (au):  <R**2>=          79600.9410
 Charge=              0.0000 electrons
 Dipole moment (field-independent basis, Debye):
    X=             -1.2991    Y=              5.0647    Z=              0.7843  Tot=              5.2871
 Quadrupole moment (field-independent basis, Debye-Ang):
   XX=           -429.6667   YY=           -457.0066   ZZ=           -468.5868
   XY=             19.7294   XZ=             -3.8263   YZ=            -22.7641
 Traceless Quadrupole moment (field-independent basis, Debye-Ang):
   XX=             22.0867   YY=             -5.2532   ZZ=            -16.8335
   XY=             19.7294   XZ=             -3.8263   YZ=            -22.7641
 Octapole moment (field-independent basis, Debye-Ang**2):
  XXX=             68.8404  YYY=             78.6337  ZZZ=            -20.3304  XYY=            -92.2444
  XXY=             46.1791  XXZ=             14.8109  XZZ=             19.9443  YZZ=             50.1838
  YYZ=             63.7811  XYZ=            -80.9034
 Hexadecapole moment (field-independent basis, Debye-Ang**3):
 XXXX=         -62829.6292 YYYY=         -28582.9257 ZZZZ=         -14537.2201 XXXY=            403.2515
 XXXZ=            -12.1290 YYYX=            310.9957 YYYZ=           -170.6784 ZZZX=           -218.5914
 ZZZY=           -299.6748 XXYY=         -15335.6422 XXZZ=         -13045.9805 YYZZ=          -7367.8501
 XXYZ=           -351.8826 YYXZ=            140.0916 ZZXY=             37.9702
 N-N= 1.371455942888D+04 E-N=-3.556896594733D+04  KE= 3.473366741863D+03
 Leave Link  601 at Tue Aug 27 11:46:20 2024, MaxMem=  2147483648 cpu:              32.5 elap:               5.2
 (Enter /apps/gaussian/g16/l9999.exe)

 Test job not archived.
 1\1\GINC-PMLP-HPCCLSAP02\FOpt\RwB97XD TDA-FC\6-31G(d,p)\C72H79N3O2S1\W
 ILLIAM1\27-Aug-2024\0\\#p opt wb97xd/6-31G** iop(3/107=0103900000,3/10
 8=0103900000) TDA=(triplets, nstates=4, root=1)\\Tuning input file gen
 erated by xtune with parameters: w01039\\0,1\C,-2.3033723475,0.5214146
 158,1.5725383972\C,-1.1503583717,2.2767276121,0.7419208404\C,-2.709736
 0566,-0.7327724918,2.0170472054\C,-3.0691201147,1.6738999172,1.8518560
 993\C,-0.2274709592,3.1098651297,0.1144386212\C,-2.3222633164,2.803874
 415,1.3308696148\C,-3.9295204845,-0.8249127292,2.6828480061\H,-2.10294
 70999,-1.615093258,1.8528071886\C,-4.2809926424,1.552634602,2.52588137
 2\C,-0.4837197041,4.479602167,0.105312748\H,0.6676873171,2.7121856276,
 -0.3487995951\C,-2.5520772527,4.1760776288,1.3028724168\C,-4.742612731
 9,0.2956494523,2.9393268399\H,-4.2456116937,-1.8076165977,3.0087899861
 \H,-4.8661720122,2.4446518937,2.7259344363\C,-1.6319497048,5.042490220
 4,0.6952825473\H,0.2439321628,5.1212818325,-0.3758714712\H,-3.45612267
 37,4.5687125781,1.7575562658\C,-0.230827152,0.0164238309,0.2562920453\
 C,-0.6764672356,-1.0958077319,-0.600663649\C,0.2285058557,-2.055834280
 1,-1.0136576374\C,1.5798751997,-2.0321703175,-0.6330417975\C,2.0416692
 254,-0.8743240798,0.1676845498\C,1.1329218045,0.0850564092,0.570146673
 \H,-0.0894620077,-2.8167745293,-1.7169574507\C,4.1880352625,-1.4332027
 089,1.3469665505\C,4.1518985551,0.4195496748,0.0494398714\C,3.85270621
 56,-2.5707911644,2.0777963886\C,5.4570377962,-0.8337328908,1.464308681
 5\C,3.8133521368,1.4262690148,-0.847582603\C,5.4395080919,0.3524828905
 ,0.6252029766\C,4.8290281965,-3.1113134425,2.902184216\H,2.8773933244,
 -3.0303998284,1.9841864062\C,6.418890219,-1.3992404159,2.3043992436\C,
 4.7805876813,2.3832016254,-1.1468155365\H,2.8395906214,1.448922538,-1.
 3214840435\C,6.3862908334,1.3203304922,0.3041090657\C,6.1210090663,-2.
 5529751836,3.0341812723\H,4.5783406917,-4.006155735,3.4618089172\H,7.3
 895697414,-0.9252743149,2.3861345402\C,6.0713638531,2.3585597816,-0.58
 57643535\H,4.5134601768,3.1631722473,-1.8487212724\H,7.3756505475,1.25
 86748727,0.7462321565\C,-6.1073202405,0.1839369217,3.6418338717\C,-1.9
 022152573,6.5580084187,0.6988046858\N,-1.1516742073,0.8865667867,0.866
 8456235\N,3.3999319307,-0.6784974385,0.4727265152\C,7.1373159532,3.418
 160123,-0.9176717722\C,7.1400333921,-3.2281314244,3.9678618835\S,2.673
 968171,-3.0617144971,-1.5640967124\C,3.6785641848,-1.9276588233,-2.534
 2484339\C,3.0832244466,-1.2058519135,-3.5708575959\C,5.0251527355,-1.7
 613684045,-2.2151392841\C,3.8558114734,-0.3040653388,-4.2981094381\H,2
 .0365106358,-1.3603922707,-3.808232882\C,5.7890255642,-0.8564679963,-2
 .9506004116\H,5.4530728078,-2.3328624333,-1.4000669223\C,5.2065139768,
 -0.1288377358,-3.9875100808\H,3.4059988354,0.2584331527,-5.1093488915\
 H,6.8351422583,-0.7152512912,-2.7049012013\H,5.8032095719,0.577681966,
 -4.5544693365\O,3.590844633,-3.7694560137,-0.6632005791\O,1.8383039731
 ,-3.8349382448,-2.4949338795\H,1.4828396017,0.883397287,1.2157917829\C
 ,7.5633904995,4.1402516059,0.3811919388\H,7.9914323055,3.4465626525,1.
 1099791091\H,8.3189827324,4.9030657562,0.1648071233\H,6.7063588948,4.6
 31260905,0.8515409724\C,6.6228088025,4.479246272,-1.9074762135\H,6.331
 4791519,4.0355143975,-2.8646249411\H,5.7653541917,5.0280496812,-1.5058
 636871\H,7.4137787645,5.2075352778,-2.1101138045\C,8.3679065442,2.7299
 887064,-1.5513701953\H,8.0906380955,2.2147598406,-2.4756156395\H,9.139
 0186509,3.4698657033,-1.7911497751\H,8.8141581438,1.9928787771,-0.8782
 423115\C,6.5797051742,-3.2575632715,5.4083747904\H,5.6439787048,-3.819
 6558972,5.4700155467\H,7.2968347266,-3.7319974147,6.0867916488\H,6.385
 2825266,-2.2436631707,5.7707349006\C,8.4882194495,-2.4853882231,3.9950
 642306\H,8.9546299949,-2.4544877263,3.0054029518\H,8.3797649082,-1.458
 8378211,4.3591986029\H,9.1794055683,-3.0015864814,4.6680408139\C,7.397
 6073981,-4.6736493665,3.4836515471\H,6.4841578297,-5.2741129428,3.4898
 386984\H,7.7902761617,-4.6770291215,2.4627226376\H,8.1266531619,-5.169
 3084033,4.1337058309\C,-3.2280071601,6.8477968382,-0.0410976373\H,-4.0
 748946855,6.3369364163,0.4253576145\H,-3.443179615,7.9216277977,-0.034
 1761886\H,-3.170053583,6.519450127,-1.0828888815\C,-2.0087415009,7.054
 6932373,2.1589715996\H,-2.1920397043,8.1341999198,2.1829845395\H,-2.82
 73353421,6.5673936902,2.6956477067\H,-1.0836314688,6.8524072267,2.7065
 605035\C,-0.7840804737,7.3560135405,0.0035259509\H,0.1818017708,7.2193
 318866,0.4994216806\H,-0.6758397991,7.0738994166,-1.0484599643\H,-1.02
 10647831,8.4236983202,0.0339151213\C,-7.2122814655,0.6615161974,2.6713
 642442\H,-8.1977989474,0.5850976604,3.1434347177\H,-7.0652265361,1.703
 1219468,2.3725676271\H,-7.2183808491,0.0519205668,1.762831987\C,-6.116
 4190258,1.06728338,4.9098990928\H,-5.9493855984,2.1219321143,4.6744348
 361\H,-7.0822045643,0.9918910341,5.4208453796\H,-5.3348689118,0.753146
 0893,5.607874449\C,-6.4332466865,-1.2600196375,4.0643220913\H,-6.48322
 89514,-1.9328891394,3.2034017854\H,-5.6942246309,-1.6538076122,4.76893
 6964\H,-7.408294296,-1.2871686546,4.5600874302\N,-2.0115825473,-1.1714
 656869,-1.0123426292\C,-2.7871580205,-0.1154867872,-1.5095645136\C,-2.
 8485258197,-2.2827810221,-0.8483834093\C,-2.3893386146,1.1440710984,-1
 .9427779546\C,-4.1303340137,-0.530861772,-1.6136021927\C,-2.5572897408
 ,-3.5506343931,-0.3522325288\C,-4.1701709058,-1.9224344848,-1.19396427
 87\C,-3.3762823873,2.0175198961,-2.3954180114\H,-1.3502163974,1.446854
 1368,-1.9256098893\C,-5.0928126951,0.3544432627,-2.0805828981\C,-3.605
 7224669,-4.4632257237,-0.2428033672\H,-1.552704081,-3.8297533757,-0.05
 99519789\C,-5.1953959046,-2.8499849127,-1.0677922787\C,-4.7340796417,1
 .6580722879,-2.461220114\H,-3.0621459792,3.0062239914,-2.7031500116\H,
 -6.1253364341,0.0281092228,-2.1484949676\C,-4.9295392412,-4.146771242,
 -0.5977032454\H,-3.3699929321,-5.4511568599,0.1316412967\H,-6.20716826
 26,-2.5588029965,-1.3301278706\C,-5.8267675778,2.6345778969,-2.9278434
 087\C,-6.0813685921,-5.1600429382,-0.4844644535\C,-5.2535668043,4.0023
 018493,-3.3400401528\C,-6.5728229977,2.0396146515,-4.1436666212\C,-6.8
 234210808,2.8599024356,-1.7670687055\C,-5.6083535432,-6.5318705166,0.0
 296293122\C,-7.1454132836,-4.6187875136,0.4978206184\C,-6.7202308667,-
 5.3626820284,-1.8778678174\H,-4.7427124517,4.4946804346,-2.5079200005\
 H,-4.5517815686,3.9142670374,-4.1751922638\H,-6.0670043752,4.659174420
 5,-3.6620255001\H,-5.8838211725,1.8620211865,-4.9745730829\H,-7.057572
 7536,1.0897008295,-3.902340194\H,-7.351172267,2.7293327025,-4.48637195
 52\H,-6.3119700591,3.272484136,-0.8926403345\H,-7.6089961906,3.5607124
 88,-2.0689230774\H,-7.3073262644,1.9282140674,-1.4613665479\H,-4.86871
 12278,-6.98396621,-0.638027103\H,-5.1748392749,-6.4644954298,1.0321978
 238\H,-6.4605530239,-7.2153305028,0.0869026842\H,-7.5554043881,-3.6600
 159,0.1684734059\H,-7.9784289748,-5.3243422107,0.5826138518\H,-6.71720
 6596,-4.476486582,1.4941250093\H,-7.1325845641,-4.4319501251,-2.277122
 8021\H,-5.9823342205,-5.7360608457,-2.5937469052\H,-7.5376012824,-6.08
 88359094,-1.8187516431\\Version=ES64L-G16RevC.01\State=1-A\HF=-3503.77
 51374\RMSD=5.446e-09\RMSF=1.185e-06\Dipole=-1.7241993,2.2598134,0.2182
 809\PG=C01 [X(C72H79N3O2S1)]\\@


 IF THERE IS ONE WAY BETTER THAN ANOTHER IT IS THE WAY OF NATURE.

                          -- ARISTOTLE
 Job cpu time:       4 days  4 hours  3 minutes 19.5 seconds.
 Elapsed time:       0 days 15 hours  3 minutes  1.6 seconds.
 File lengths (MBytes):  RWF=  12045 Int=      0 D2E=      0 Chk=    563 Scr=      1
 Normal termination of Gaussian 16 at Tue Aug 27 11:46:25 2024.
