 Entering Gaussian System, Link 0=g16
 Initial command:
 /apps/gaussian/g16/l1.exe "/local/Gau-3873018.inp" -scrdir="/local/"
 Entering Link 1 = /apps/gaussian/g16/l1.exe PID=   3873019.
  
 Copyright (c) 1988-2019, Gaussian, Inc.  All Rights Reserved.
  
 This is part of the Gaussian(R) 16 program.  It is based on
 the Gaussian(R) 09 system (copyright 2009, Gaussian, Inc.),
 the Gaussian(R) 03 system (copyright 2003, Gaussian, Inc.),
 the Gaussian(R) 98 system (copyright 1998, Gaussian, Inc.),
 the Gaussian(R) 94 system (copyright 1995, Gaussian, Inc.),
 the Gaussian 92(TM) system (copyright 1992, Gaussian, Inc.),
 the Gaussian 90(TM) system (copyright 1990, Gaussian, Inc.),
 the Gaussian 88(TM) system (copyright 1988, Gaussian, Inc.),
 the Gaussian 86(TM) system (copyright 1986, Carnegie Mellon
 University), and the Gaussian 82(TM) system (copyright 1983,
 Carnegie Mellon University). Gaussian is a federally registered
 trademark of Gaussian, Inc.
  
 This software contains proprietary and confidential information,
 including trade secrets, belonging to Gaussian, Inc.
  
 This software is provided under written license and may be
 used, copied, transmitted, or stored only in accord with that
 written license.
  
 The following legend is applicable only to US Government
 contracts under FAR:
  
                    RESTRICTED RIGHTS LEGEND
  
 Use, reproduction and disclosure by the US Government is
 subject to restrictions as set forth in subparagraphs (a)
 and (c) of the Commercial Computer Software - Restricted
 Rights clause in FAR 52.227-19.
  
 Gaussian, Inc.
 340 Quinnipiac St., Bldg. 40, Wallingford CT 06492
  
  
 ---------------------------------------------------------------
 Warning -- This program may not be used in any manner that
 competes with the business of Gaussian, Inc. or will provide
 assistance to any competitor of Gaussian, Inc.  The licensee
 of this program is prohibited from giving any competitor of
 Gaussian, Inc. access to this program.  By using this program,
 the user acknowledges that Gaussian, Inc. is engaged in the
 business of creating and licensing software in the field of
 computational chemistry and represents and warrants to the
 licensee that it is not a competitor of Gaussian, Inc. and that
 it will not use this program in any manner prohibited above.
 ---------------------------------------------------------------
  

 Cite this work as:
 Gaussian 16, Revision C.01,
 M. J. Frisch, G. W. Trucks, H. B. Schlegel, G. E. Scuseria, 
 M. A. Robb, J. R. Cheeseman, G. Scalmani, V. Barone, 
 G. A. Petersson, H. Nakatsuji, X. Li, M. Caricato, A. V. Marenich, 
 J. Bloino, B. G. Janesko, R. Gomperts, B. Mennucci, H. P. Hratchian, 
 J. V. Ortiz, A. F. Izmaylov, J. L. Sonnenberg, D. Williams-Young, 
 F. Ding, F. Lipparini, F. Egidi, J. Goings, B. Peng, A. Petrone, 
 T. Henderson, D. Ranasinghe, V. G. Zakrzewski, J. Gao, N. Rega, 
 G. Zheng, W. Liang, M. Hada, M. Ehara, K. Toyota, R. Fukuda, 
 J. Hasegawa, M. Ishida, T. Nakajima, Y. Honda, O. Kitao, H. Nakai, 
 T. Vreven, K. Throssell, J. A. Montgomery, Jr., J. E. Peralta, 
 F. Ogliaro, M. J. Bearpark, J. J. Heyd, E. N. Brothers, K. N. Kudin, 
 V. N. Staroverov, T. A. Keith, R. Kobayashi, J. Normand, 
 K. Raghavachari, A. P. Rendell, J. C. Burant, S. S. Iyengar, 
 J. Tomasi, M. Cossi, J. M. Millam, M. Klene, C. Adamo, R. Cammi, 
 J. W. Ochterski, R. L. Martin, K. Morokuma, O. Farkas, 
 J. B. Foresman, and D. J. Fox, Gaussian, Inc., Wallingford CT, 2019.
 
 ******************************************
 Gaussian 16:  ES64L-G16RevC.01  3-Jul-2019
                31-Oct-2024 
 ******************************************
 %chk=YZ-VIII-197.chk
 %nprocshared=16
 Will use up to   16 processors via shared memory.
 %mem=16GB
 ----------------------------------------------------------------------
 #p opt=Restart wB97XD/6-31G** iop(3/107=0119500000,3/108=0119500000) T
 DA=(triplets, nstates=4, root=1)
 ----------------------------------------------------------------------
 1/18=20,19=15,26=3,35=1/3(2);
 2/9=110/2;
 99//99;
 2/9=110/2;
 3/5=1,6=6,7=101,11=9,25=1,30=1,71=1,74=-58,107=119500000,108=119500000/1,2,3,8;
 4/5=5,16=3,69=1/1;
 5/5=2,38=5/2;
 8/6=1,10=2,107=1,108=4/1;
 9/8=1,15=2,41=4,42=1,48=3,49=4/14;
 10/5=4,28=1/2;
 7/12=6,13=5,14=1/1,2,3,16;
 1/18=20,19=15,26=3/3(-8);
 2/9=110/2;
 6/7=2,8=2,9=2,10=2/1;
 99/9=10/99;
 Leave Link    1 at Thu Oct 31 23:46:04 2024, MaxMem=  2147483648 cpu:               0.8 elap:               0.1
 (Enter /apps/gaussian/g16/l103.exe)

 GradGradGradGradGradGradGradGradGradGradGradGradGradGradGradGradGradGrad
 Berny optimization.
 Restoring state from the checkpoint file "YZ-VIII-197.chk".
 ONIOM results not found on unit 2.
 Title:  Tuning input file generated by xtune with parameters: w01195
 Route:  #p opt wB97XD/6-31G** iop(3/107=0119500000,3/108=0119500000) TDA=(triple
 ts, nstates=4, root=1)
 FncErr=1.00D-07 GrdErr=1.00D-06 EigMax=2.50D+02 EigMin=1.00D-04
 Using GEDIIS/GDIIS optimizer.
 FormGI is forming the generalized inverse of G from B-inverse, IUseBI=4.
 Internal  Forces:  Max     0.000581048 RMS     0.000079548
 Search for a local minimum.
 Step number  21 out of a maximum of  510
 All quantities printed in internal units (Hartrees-Bohrs-Radians)
 RMS Force = .79548D-04 SwitMx=.10000D-02 MixMth= 2
 Mixed Optimization -- En-DIIS/RFO-DIIS
 Swapping is turned off.
 Update second derivatives using D2CorX and points   11   12   13   14   15
                                                     16   17   18   19   20
                                                     21
 DE=  1.33D-05 DEPred=-1.83D-05 R=-7.28D-01
 Trust test=-7.28D-01 RLast= 6.73D-02 DXMaxT set to 1.26D-01
 ITU= -1  1  1 -1 -1  1 -1  1  1  1  1  1  1  0  1  0  0 -1 -1  1
 ITU=  0
     Eigenvalues ---    0.00230   0.00380   0.00460   0.00606   0.01019
     Eigenvalues ---    0.01502   0.01661   0.01712   0.01743   0.01748
     Eigenvalues ---    0.01754   0.01793   0.01837   0.01880   0.01885
     Eigenvalues ---    0.01889   0.01892   0.01901   0.01911   0.01915
     Eigenvalues ---    0.01931   0.01942   0.01963   0.01966   0.01975
     Eigenvalues ---    0.01985   0.02011   0.02034   0.02080   0.02103
     Eigenvalues ---    0.02103   0.02106   0.02106   0.02110   0.02111
     Eigenvalues ---    0.02124   0.02129   0.02133   0.02136   0.02136
     Eigenvalues ---    0.02137   0.02139   0.02140   0.02141   0.02141
     Eigenvalues ---    0.02142   0.02143   0.02149   0.02151   0.02153
     Eigenvalues ---    0.02160   0.02162   0.02166   0.02169   0.02169
     Eigenvalues ---    0.02171   0.02171   0.02173   0.02175   0.02176
     Eigenvalues ---    0.02176   0.02176   0.02177   0.02177   0.02178
     Eigenvalues ---    0.02180   0.02186   0.02186   0.02189   0.02189
     Eigenvalues ---    0.02194   0.02205   0.02219   0.02241   0.02276
     Eigenvalues ---    0.02521   0.02792   0.03449   0.06816   0.10085
     Eigenvalues ---    0.10339   0.14345   0.15474   0.15745   0.15947
     Eigenvalues ---    0.15989   0.15996   0.15997   0.15997   0.15998
     Eigenvalues ---    0.15998   0.15999   0.15999   0.15999   0.15999
     Eigenvalues ---    0.16000   0.16000   0.16000   0.16000   0.16000
     Eigenvalues ---    0.16000   0.16000   0.16000   0.16000   0.16002
     Eigenvalues ---    0.16004   0.16006   0.16015   0.16024   0.16052
     Eigenvalues ---    0.16073   0.16195   0.17213   0.17843   0.18809
     Eigenvalues ---    0.21843   0.21954   0.21997   0.22000   0.22001
     Eigenvalues ---    0.22002   0.22005   0.22013   0.22213   0.22567
     Eigenvalues ---    0.22577   0.22605   0.22622   0.22625   0.22820
     Eigenvalues ---    0.23329   0.23798   0.23896   0.24006   0.24294
     Eigenvalues ---    0.24395   0.24490   0.24499   0.24530   0.24580
     Eigenvalues ---    0.24626   0.24769   0.24853   0.24929   0.24970
     Eigenvalues ---    0.24996   0.25014   0.25103   0.25265   0.26248
     Eigenvalues ---    0.27850   0.28601   0.30109   0.31066   0.34953
     Eigenvalues ---    0.35263   0.35392   0.35399   0.35400   0.35400
     Eigenvalues ---    0.35403   0.35404   0.35405   0.35425   0.35426
     Eigenvalues ---    0.35440   0.35447   0.35447   0.35449   0.35449
     Eigenvalues ---    0.35451   0.35452   0.35454   0.35455   0.35456
     Eigenvalues ---    0.35461   0.35467   0.35474   0.35497   0.35525
     Eigenvalues ---    0.35537   0.35573   0.35594   0.35723   0.35811
     Eigenvalues ---    0.35954   0.36324   0.36447   0.36503   0.36570
     Eigenvalues ---    0.37045   0.38471   0.39770   0.40353   0.40446
     Eigenvalues ---    0.40535   0.41819   0.42271   0.42284   0.42330
     Eigenvalues ---    0.42502   0.42532   0.42624   0.42684   0.42712
     Eigenvalues ---    0.43036   0.43142   0.43597   0.43628   0.43668
     Eigenvalues ---    0.43698   0.43940   0.44170   0.44520   0.44571
     Eigenvalues ---    0.44620   0.44700   0.44952   0.45119   0.45596
     Eigenvalues ---    0.45908   0.45971   0.46041   0.46084   0.46133
     Eigenvalues ---    0.46265   0.46421   0.46456   0.46508   0.46618
     Eigenvalues ---    0.46633   0.46721   0.46790   0.46803   0.46806
     Eigenvalues ---    0.46860   0.46887   0.46915   0.46962   0.47019
     Eigenvalues ---    0.47129   0.47176   0.47333   0.51552   0.53714
     Eigenvalues ---    0.64207   0.74783   0.90159   0.90322
 En-DIIS/RFO-DIIS/Sim-DIIS IScMMF=       -3 using points:    21   20   19   18   17   16   15   14   13   12
 RFO step:  Lambda=-8.51135542D-05.
 NNeg= 0 NGDIIS=10 SimSw=  2.50D-03 Rises=T DC=  1.33D-05 SmlDif=  1.00D-05
 NRisDI= 1 DoIntr=F SqrtH=F CThrHd= 10.0 CDAdj=  3.0
 RMS Error=  0.7591220539D-02 NUsed=10 OKEnD=T EnDIS=T
 InvSVX:  RCond= 1.48D-06 Info=           0 Equed=N FErr=  1.96D-11 BErr=  6.11D-17
 EnCoef did   100 forward-backward iterations
 IWarn =    2
 Energies =   -2560.14419112      -2560.14425909      -2560.14435414      -2560.14430314      -2560.14447304    
 Energies =   -2560.14445445      -2560.14443453      -2560.14453394      -2560.14453850      -2560.14452521    
 Point number   1 has energy  -0.2560144191D+04 and has been removed
 EnCoef did   100 forward-backward iterations
 IWarn =    2
 Energies =   -2560.14425909      -2560.14435414      -2560.14430314      -2560.14447304      -2560.14445445    
 Energies =   -2560.14443453      -2560.14453394      -2560.14453850      -2560.14452521    
 Point number   1 has energy  -0.2560144259D+04 and has been removed
 EnCoef did   100 forward-backward iterations
 IWarn =    2
 Energies =   -2560.14435414      -2560.14430314      -2560.14447304      -2560.14445445      -2560.14443453    
 Energies =   -2560.14453394      -2560.14453850      -2560.14452521    
 Point number   2 has energy  -0.2560144303D+04 and has been removed
 EnCoef did   100 forward-backward iterations
 IWarn =    2
 Energies =   -2560.14435414      -2560.14447304      -2560.14445445      -2560.14443453      -2560.14453394    
 Energies =   -2560.14453850      -2560.14452521    
 Point number   1 has energy  -0.2560144354D+04 and has been removed
 EnCoef did   100 forward-backward iterations
 IWarn =    2
 Energies =   -2560.14447304      -2560.14445445      -2560.14443453      -2560.14453394      -2560.14453850    
 Energies =   -2560.14452521    
 Point number   3 has energy  -0.2560144435D+04 and has been removed
 EnCoef did    13 forward-backward iterations
 IWarn =    0
 DidBck=T Rises=T En-DIIS coefs:    0.08853    0.57951    0.11756    0.00000    0.00000
                  En-DIIS coefs:    0.21440    0.00000    0.00000    0.00000    0.00000
 Iteration  1 RMS(Cart)=  0.07366253 RMS(Int)=  0.00031651
 Iteration  2 RMS(Cart)=  0.00109844 RMS(Int)=  0.00003827
 Iteration  3 RMS(Cart)=  0.00000026 RMS(Int)=  0.00003827
 ITry= 1 IFail=0 DXMaxC= 2.80D-01 DCOld= 1.00D+10 DXMaxT= 1.26D-01 DXLimC= 3.00D+00 Rises=F
 Variable       Old X    -DE/DX   Delta X   Delta X   Delta X     New X
                                 (Linear)    (Quad)   (Total)
    R1        2.63744   0.00015   0.00042  -0.00005   0.00038   2.63782
    R2        2.67297   0.00008   0.00035  -0.00006   0.00028   2.67325
    R3        2.63005  -0.00021  -0.00114   0.00002  -0.00113   2.62893
    R4        2.63260  -0.00005   0.00009  -0.00022  -0.00012   2.63248
    R5        2.66583  -0.00011   0.00010  -0.00027  -0.00017   2.66567
    R6        2.65209  -0.00007  -0.00008   0.00081   0.00073   2.65282
    R7        2.62877  -0.00002  -0.00034   0.00025  -0.00009   2.62868
    R8        2.04538   0.00003   0.00005  -0.00008  -0.00004   2.04535
    R9        2.74725  -0.00006  -0.00028  -0.00008  -0.00037   2.74688
   R10        2.62634  -0.00006   0.00028  -0.00029  -0.00002   2.62632
   R11        2.63467   0.00002  -0.00014   0.00052   0.00039   2.63506
   R12        2.04658  -0.00003   0.00001  -0.00013  -0.00013   2.04646
   R13        2.62842   0.00004   0.00036  -0.00009   0.00027   2.62869
   R14        2.64713   0.00003   0.00027  -0.00029  -0.00002   2.64711
   R15        2.04850  -0.00002   0.00001  -0.00004  -0.00003   2.04848
   R16        2.63992  -0.00001  -0.00043   0.00022  -0.00021   2.63972
   R17        2.04953   0.00000   0.00002  -0.00002   0.00000   2.04953
   R18        2.64420   0.00001   0.00018  -0.00041  -0.00022   2.64398
   R19        2.04859   0.00000   0.00005  -0.00000   0.00005   2.04864
   R20        2.64031  -0.00001  -0.00040   0.00026  -0.00014   2.64016
   R21        2.04984  -0.00000   0.00003  -0.00002   0.00002   2.04986
   R22        2.04936   0.00001   0.00002   0.00002   0.00004   2.04940
   R23        2.04920  -0.00001  -0.00001   0.00001   0.00000   2.04920
   R24        2.76246  -0.00058  -0.00082   0.00307   0.00232   2.76478
   R25        2.77033  -0.00036   0.00049  -0.00163  -0.00107   2.76925
   R26        2.65710  -0.00021   0.00181   0.00032   0.00212   2.65922
   R27        2.57247  -0.00007  -0.00032  -0.00010  -0.00043   2.57204
   R28        2.68132  -0.00008   0.00046   0.00055   0.00100   2.68233
   R29        2.71996   0.00006   0.00020  -0.00149  -0.00136   2.71860
   R30        2.04816  -0.00001  -0.00002   0.00026   0.00025   2.04840
   R31        2.67455  -0.00024  -0.00225   0.00032  -0.00199   2.67256
   R32        3.31191  -0.00010  -0.00030   0.00103   0.00073   3.31264
   R33        2.59230   0.00006   0.00061   0.00032   0.00093   2.59324
   R34        2.04761  -0.00008  -0.00002  -0.00016  -0.00017   2.04744
   R35        2.65669  -0.00009  -0.00098  -0.00056  -0.00154   2.65515
   R36        2.77194   0.00002  -0.00017   0.00009  -0.00008   2.77186
   R37        2.77407  -0.00008  -0.00012   0.00018   0.00006   2.77414
   R38        3.39619   0.00000   0.00047  -0.00016   0.00031   3.39651
   R39        2.63191  -0.00002  -0.00013   0.00034   0.00020   2.63212
   R40        2.63812   0.00000   0.00003  -0.00021  -0.00017   2.63794
   R41        2.05000   0.00001   0.00000   0.00002   0.00002   2.05002
   R42        2.63738  -0.00000   0.00002  -0.00016  -0.00014   2.63724
   R43        2.04840   0.00001   0.00003  -0.00007  -0.00004   2.04836
   R44        2.63829  -0.00001  -0.00021  -0.00003  -0.00024   2.63805
   R45        2.63314  -0.00001   0.00008  -0.00018  -0.00010   2.63304
   R46        2.04832  -0.00002  -0.00002  -0.00003  -0.00004   2.04828
   R47        2.63724  -0.00002  -0.00011   0.00007  -0.00004   2.63720
   R48        2.05000   0.00001   0.00003  -0.00005  -0.00003   2.04997
   R49        2.05032   0.00000  -0.00001   0.00004   0.00003   2.05035
   R50        2.65435  -0.00001  -0.00011   0.00016   0.00005   2.65441
   R51        2.62850   0.00001   0.00008  -0.00007   0.00001   2.62851
   R52        2.04985   0.00000   0.00000   0.00002   0.00002   2.04988
   R53        2.62979   0.00004   0.00013   0.00004   0.00017   2.62996
   R54        2.05066   0.00000   0.00001   0.00001   0.00002   2.05068
   R55        2.63782   0.00001  -0.00005  -0.00009  -0.00014   2.63768
   R56        2.04942  -0.00005  -0.00005   0.00005   0.00000   2.04942
   R57        2.67258  -0.00001   0.00001   0.00016   0.00017   2.67275
   R58        2.63212   0.00002   0.00007  -0.00090  -0.00083   2.63129
   R59        2.64176   0.00002  -0.00003   0.00024   0.00020   2.64197
   R60        2.73726   0.00000   0.00007  -0.00021  -0.00014   2.73712
   R61        2.05081  -0.00001  -0.00001   0.00001  -0.00000   2.05081
   R62        2.63607  -0.00002  -0.00007   0.00017   0.00010   2.63617
   R63        2.67108  -0.00002   0.00004   0.00018   0.00022   2.67130
   R64        2.63341  -0.00021  -0.00050  -0.00050  -0.00100   2.63241
   R65        2.62676  -0.00002  -0.00002  -0.00016  -0.00017   2.62658
   R66        2.04819  -0.00001  -0.00014   0.00022   0.00008   2.04827
   R67        2.65456   0.00000  -0.00003   0.00024   0.00021   2.65476
   R68        2.05012   0.00000   0.00003   0.00001   0.00004   2.05016
   R69        2.62665   0.00000   0.00001  -0.00016  -0.00015   2.62649
   R70        2.04975   0.00000  -0.00000   0.00004   0.00003   2.04979
   R71        2.64218  -0.00000  -0.00001   0.00018   0.00018   2.64236
   R72        2.05074  -0.00001  -0.00000  -0.00002  -0.00002   2.05072
   R73        2.64906  -0.00003  -0.00049  -0.00010  -0.00059   2.64847
   R74        2.63357   0.00003   0.00051  -0.00022   0.00029   2.63386
   R75        2.04930   0.00001  -0.00002   0.00003   0.00001   2.04931
   R76        2.63002   0.00006   0.00041  -0.00015   0.00025   2.63027
   R77        2.04930  -0.00001  -0.00005   0.00000  -0.00005   2.04925
   R78        2.63994   0.00010  -0.00013   0.00054   0.00041   2.64035
   R79        2.04693  -0.00001   0.00003  -0.00030  -0.00027   2.04666
   R80        2.67354   0.00006   0.00009   0.00023   0.00032   2.67386
   R81        2.63977   0.00000  -0.00022   0.00129   0.00107   2.64084
   R82        2.63268  -0.00009  -0.00065   0.00005  -0.00060   2.63208
   R83        2.74327   0.00008   0.00048  -0.00009   0.00039   2.74366
   R84        2.04981  -0.00000  -0.00004   0.00001  -0.00002   2.04979
   R85        2.63384  -0.00015  -0.00013  -0.00021  -0.00034   2.63350
   R86        2.66543  -0.00022   0.00003  -0.00087  -0.00084   2.66459
   R87        2.64891  -0.00019   0.00040   0.00029   0.00068   2.64959
   R88        2.63209   0.00006   0.00041  -0.00014   0.00027   2.63236
   R89        2.04643   0.00001  -0.00031   0.00019  -0.00012   2.04631
   R90        2.64718  -0.00002  -0.00057   0.00017  -0.00040   2.64678
   R91        2.04901  -0.00002  -0.00004  -0.00008  -0.00012   2.04889
   R92        2.63468   0.00011   0.00056  -0.00007   0.00049   2.63516
   R93        2.04923  -0.00001  -0.00003  -0.00001  -0.00003   2.04920
   R94        2.63401  -0.00003  -0.00055   0.00015  -0.00040   2.63360
   R95        2.04998  -0.00001  -0.00005  -0.00001  -0.00006   2.04991
    A1        2.12947   0.00002  -0.00044   0.00044   0.00000   2.12948
    A2        2.24309   0.00007   0.00070  -0.00049   0.00021   2.24331
    A3        1.90912  -0.00009  -0.00010   0.00003  -0.00008   1.90904
    A4        2.13130  -0.00001  -0.00031   0.00029  -0.00001   2.13129
    A5        2.24197  -0.00003   0.00071  -0.00047   0.00024   2.24221
    A6        1.90752   0.00004  -0.00032   0.00011  -0.00021   1.90731
    A7        2.05052  -0.00005   0.00016  -0.00028  -0.00012   2.05039
    A8        2.11760   0.00003  -0.00001  -0.00002  -0.00003   2.11757
    A9        2.11485   0.00003  -0.00017   0.00026   0.00009   2.11494
   A10        1.86198   0.00005  -0.00005   0.00024   0.00018   1.86216
   A11        2.08618  -0.00002   0.00014  -0.00017  -0.00003   2.08615
   A12        2.33487  -0.00004  -0.00005  -0.00008  -0.00012   2.33474
   A13        2.04906   0.00004   0.00014  -0.00014   0.00000   2.04907
   A14        2.11697  -0.00004  -0.00003   0.00008   0.00004   2.11701
   A15        2.11705  -0.00000  -0.00011   0.00003  -0.00008   2.11697
   A16        1.85991  -0.00007  -0.00000  -0.00011  -0.00011   1.85980
   A17        2.08605   0.00001   0.00008  -0.00017  -0.00009   2.08596
   A18        2.33644   0.00006  -0.00005   0.00020   0.00014   2.33658
   A19        2.11432  -0.00000   0.00022  -0.00016   0.00006   2.11438
   A20        2.07861   0.00000   0.00006  -0.00013  -0.00007   2.07854
   A21        2.09025  -0.00000  -0.00028   0.00029   0.00000   2.09025
   A22        2.07355   0.00000   0.00013  -0.00014  -0.00001   2.07354
   A23        2.10681  -0.00000  -0.00022   0.00019  -0.00004   2.10677
   A24        2.10282   0.00000   0.00010  -0.00005   0.00005   2.10287
   A25        2.11458  -0.00002   0.00017  -0.00012   0.00005   2.11463
   A26        2.07853   0.00004   0.00013  -0.00001   0.00012   2.07865
   A27        2.09003  -0.00001  -0.00031   0.00013  -0.00018   2.08985
   A28        2.07402   0.00002   0.00014   0.00005   0.00019   2.07421
   A29        2.10651  -0.00002  -0.00025   0.00009  -0.00015   2.10635
   A30        2.10258  -0.00000   0.00011  -0.00016  -0.00004   2.10254
   A31        2.11170   0.00005  -0.00017   0.00033   0.00016   2.11187
   A32        2.08549  -0.00002  -0.00004  -0.00000  -0.00005   2.08544
   A33        2.08597  -0.00003   0.00021  -0.00033  -0.00011   2.08586
   A34        2.10962  -0.00003  -0.00021   0.00006  -0.00015   2.10947
   A35        2.08607   0.00002  -0.00005   0.00014   0.00009   2.08616
   A36        2.08731   0.00001   0.00026  -0.00021   0.00005   2.08736
   A37        2.04391   0.00015  -0.00130  -0.00196  -0.00351   2.04040
   A38        2.10366  -0.00021  -0.00160  -0.00609  -0.00822   2.09544
   A39        2.06207  -0.00004  -0.00423  -0.00549  -0.01023   2.05184
   A40        2.10059   0.00000   0.00063  -0.00022   0.00055   2.10114
   A41        2.09288  -0.00047   0.00015  -0.00112  -0.00103   2.09185
   A42        2.08970   0.00047  -0.00080   0.00137   0.00050   2.09019
   A43        2.11068  -0.00005   0.00036   0.00063   0.00100   2.11168
   A44        2.08388  -0.00003  -0.00041  -0.00040  -0.00082   2.08306
   A45        2.08861   0.00007   0.00006  -0.00022  -0.00017   2.08844
   A46        2.09866  -0.00002  -0.00036   0.00025  -0.00015   2.09851
   A47        2.08032   0.00003  -0.00023   0.00076   0.00058   2.08090
   A48        2.08536  -0.00001   0.00013  -0.00095  -0.00076   2.08459
   A49        2.08969  -0.00009   0.00005  -0.00141  -0.00135   2.08834
   A50        2.08593   0.00010   0.00081  -0.00045   0.00035   2.08628
   A51        2.10646  -0.00002  -0.00094   0.00172   0.00077   2.10723
   A52        2.12102   0.00000   0.00072   0.00229   0.00315   2.12417
   A53        2.04843  -0.00021  -0.00125  -0.00501  -0.00634   2.04210
   A54        2.11328   0.00020   0.00050   0.00256   0.00298   2.11626
   A55        1.88581   0.00007   0.00045  -0.00033   0.00012   1.88592
   A56        2.19875   0.00007  -0.00093  -0.00017  -0.00110   2.19765
   A57        2.19863  -0.00013   0.00048   0.00050   0.00098   2.19962
   A58        1.88753  -0.00003   0.00004  -0.00111  -0.00107   1.88646
   A59        1.88189  -0.00001  -0.00035   0.00001  -0.00034   1.88155
   A60        1.81147   0.00010  -0.00066   0.00224   0.00157   1.81304
   A61        2.12137  -0.00002  -0.00007  -0.00015  -0.00022   2.12115
   A62        1.86475   0.00002   0.00091  -0.00043   0.00049   1.86523
   A63        1.87312  -0.00004   0.00002  -0.00010  -0.00008   1.87304
   A64        2.09732  -0.00001  -0.00006   0.00001  -0.00006   2.09726
   A65        2.08970  -0.00000   0.00004   0.00002   0.00005   2.08975
   A66        2.09615   0.00001   0.00003  -0.00002   0.00001   2.09616
   A67        2.07902   0.00002   0.00018  -0.00030  -0.00012   2.07890
   A68        2.11594  -0.00001  -0.00020   0.00031   0.00011   2.11605
   A69        2.08807  -0.00001   0.00002  -0.00001   0.00000   2.08807
   A70        2.08387  -0.00001  -0.00048   0.00071   0.00023   2.08410
   A71        2.08143   0.00003   0.00058  -0.00088  -0.00030   2.08113
   A72        2.11611  -0.00002  -0.00014   0.00030   0.00016   2.11627
   A73        2.07899   0.00000   0.00003  -0.00006  -0.00004   2.07895
   A74        2.09012  -0.00001   0.00002   0.00022   0.00024   2.09036
   A75        2.11383   0.00000  -0.00004  -0.00016  -0.00020   2.11363
   A76        2.09682   0.00001   0.00008  -0.00009  -0.00001   2.09681
   A77        2.08892  -0.00000  -0.00012   0.00018   0.00006   2.08898
   A78        2.09741  -0.00001   0.00004  -0.00009  -0.00004   2.09737
   A79        2.09806  -0.00001  -0.00008   0.00014   0.00006   2.09812
   A80        2.09244   0.00000   0.00003  -0.00005  -0.00001   2.09243
   A81        2.09265   0.00001   0.00005  -0.00009  -0.00005   2.09260
   A82        2.10684   0.00001   0.00004   0.00020   0.00023   2.10708
   A83        2.08586  -0.00001   0.00001  -0.00018  -0.00017   2.08569
   A84        2.09048   0.00000  -0.00005  -0.00001  -0.00006   2.09041
   A85        2.11916  -0.00003  -0.00005  -0.00017  -0.00022   2.11894
   A86        2.08501   0.00002   0.00012  -0.00027  -0.00015   2.08486
   A87        2.07901   0.00001  -0.00006   0.00044   0.00038   2.07938
   A88        2.04860   0.00002  -0.00003  -0.00010  -0.00013   2.04847
   A89        2.12135   0.00001  -0.00003   0.00068   0.00065   2.12200
   A90        2.11319  -0.00003   0.00006  -0.00058  -0.00052   2.11267
   A91        2.13139   0.00000   0.00012   0.00042   0.00053   2.13192
   A92        2.24751   0.00003  -0.00001  -0.00063  -0.00064   2.24687
   A93        1.90402  -0.00003  -0.00009   0.00022   0.00013   1.90415
   A94        2.08190  -0.00002  -0.00012  -0.00042  -0.00053   2.08137
   A95        1.86155  -0.00002  -0.00006  -0.00020  -0.00026   1.86129
   A96        2.33966   0.00004   0.00019   0.00060   0.00079   2.34045
   A97        2.07847   0.00002   0.00005   0.00007   0.00012   2.07858
   A98        2.10327  -0.00001  -0.00006  -0.00009  -0.00015   2.10312
   A99        2.10144  -0.00001   0.00001   0.00002   0.00003   2.10147
   A100       2.12903   0.00005  -0.00003   0.00059   0.00055   2.12958
   A101       2.25044  -0.00009   0.00001  -0.00059  -0.00059   2.24985
   A102       1.90360   0.00004   0.00003   0.00007   0.00010   1.90370
   A103       2.05062  -0.00002   0.00005  -0.00040  -0.00035   2.05027
   A104       2.11577   0.00000  -0.00000  -0.00001  -0.00001   2.11576
   A105       2.11679   0.00002  -0.00005   0.00041   0.00036   2.11716
   A106       2.11876  -0.00000   0.00000   0.00006   0.00007   2.11883
   A107       2.07844   0.00000  -0.00002   0.00009   0.00008   2.07852
   A108       2.08597   0.00000   0.00001  -0.00015  -0.00014   2.08583
   A109       2.10674   0.00001  -0.00004   0.00022   0.00018   2.10692
   A110       2.08567  -0.00001   0.00001  -0.00011  -0.00010   2.08557
   A111       2.09075  -0.00001   0.00003  -0.00010  -0.00007   2.09067
   A112       2.07733  -0.00000   0.00004  -0.00000   0.00003   2.07737
   A113       2.10405   0.00000   0.00003  -0.00013  -0.00010   2.10396
   A114       2.10180   0.00000  -0.00007   0.00013   0.00006   2.10186
   A115       1.86270  -0.00002  -0.00002  -0.00016  -0.00017   1.86252
   A116       2.33687   0.00005   0.00004   0.00057   0.00060   2.33747
   A117       2.08362  -0.00003  -0.00002  -0.00041  -0.00043   2.08319
   A118       2.16698   0.00027  -0.00078   0.00179   0.00100   2.16798
   A119       2.21299  -0.00031   0.00041  -0.00239  -0.00198   2.21100
   A120       1.89286   0.00003   0.00015   0.00008   0.00022   1.89308
   A121       2.10810   0.00003   0.00002   0.00000   0.00002   2.10812
   A122       2.08605  -0.00001   0.00018  -0.00011   0.00006   2.08612
   A123       2.08903  -0.00001  -0.00020   0.00011  -0.00009   2.08895
   A124       2.11816  -0.00001  -0.00005   0.00008   0.00004   2.11820
   A125       2.08731   0.00000   0.00012   0.00002   0.00014   2.08745
   A126       2.07771   0.00001  -0.00007  -0.00011  -0.00018   2.07753
   A127       2.05092  -0.00002  -0.00001   0.00022   0.00021   2.05113
   A128       2.11246  -0.00005  -0.00012  -0.00164  -0.00176   2.11069
   A129       2.11976   0.00007   0.00012   0.00142   0.00154   2.12130
   A130       2.12541  -0.00002  -0.00012  -0.00059  -0.00071   2.12469
   A131       2.25520   0.00016   0.00007   0.00139   0.00146   2.25666
   A132       1.90126  -0.00014   0.00000  -0.00078  -0.00078   1.90048
   A133       2.08802   0.00001   0.00022   0.00031   0.00053   2.08855
   A134       1.86559   0.00005  -0.00004   0.00067   0.00063   1.86622
   A135       2.32948  -0.00006  -0.00018  -0.00099  -0.00117   2.32831
   A136       2.07571   0.00001  -0.00007  -0.00001  -0.00008   2.07563
   A137       2.10397  -0.00001  -0.00022   0.00025   0.00004   2.10400
   A138       2.10349  -0.00001   0.00029  -0.00024   0.00005   2.10354
   A139       2.12892   0.00014  -0.00002   0.00041   0.00039   2.12931
   A140       2.24789  -0.00027   0.00016  -0.00098  -0.00082   2.24707
   A141       1.90449   0.00013  -0.00014   0.00052   0.00038   1.90488
   A142       2.04979  -0.00001  -0.00007  -0.00011  -0.00018   2.04961
   A143       2.11246  -0.00028  -0.00014  -0.00143  -0.00156   2.11089
   A144       2.12092   0.00029   0.00020   0.00155   0.00175   2.12267
   A145       2.11677  -0.00008  -0.00005  -0.00016  -0.00021   2.11656
   A146       2.07785   0.00004  -0.00006   0.00008   0.00002   2.07787
   A147       2.08853   0.00004   0.00011   0.00009   0.00019   2.08872
   A148       2.10768   0.00001   0.00007   0.00005   0.00012   2.10780
   A149       2.08655  -0.00001   0.00011  -0.00009   0.00002   2.08657
   A150       2.08880   0.00001  -0.00018   0.00004  -0.00014   2.08866
   A151       2.07480  -0.00002  -0.00010  -0.00010  -0.00020   2.07460
   A152       2.10377   0.00001  -0.00022   0.00024   0.00002   2.10379
   A153       2.10458   0.00001   0.00031  -0.00014   0.00018   2.10476
   A154       1.86240  -0.00009  -0.00004  -0.00017  -0.00021   1.86220
   A155       2.33348   0.00013  -0.00010   0.00027   0.00017   2.33365
   A156       2.08677  -0.00004   0.00012  -0.00009   0.00003   2.08680
   A157       2.19661   0.00048   0.00036   0.00345   0.00382   2.20043
   A158       2.19298  -0.00053   0.00009  -0.00400  -0.00390   2.18909
   A159       1.88994   0.00005   0.00012  -0.00018  -0.00006   1.88988
    D1        0.03871  -0.00003  -0.00155  -0.00057  -0.00212   0.03659
    D2       -3.12496  -0.00006  -0.00278  -0.00247  -0.00525  -3.13021
    D3        3.11505   0.00001   0.00200  -0.00100   0.00099   3.11604
    D4       -0.04862  -0.00001   0.00076  -0.00290  -0.00214  -0.05076
    D5        3.09826   0.00007   0.00361   0.00064   0.00425   3.10251
    D6       -0.02640   0.00005   0.00166   0.00119   0.00285  -0.02355
    D7        0.01078   0.00003   0.00065   0.00102   0.00166   0.01244
    D8       -3.11388   0.00001  -0.00130   0.00157   0.00026  -3.11361
    D9       -3.10772  -0.00009  -0.00424  -0.00139  -0.00563  -3.11336
   D10        0.03356  -0.00003  -0.00533   0.00200  -0.00333   0.03024
   D11       -0.02478  -0.00005  -0.00107  -0.00177  -0.00284  -0.02762
   D12        3.11650   0.00002  -0.00216   0.00163  -0.00053   3.11597
   D13        0.06423   0.00000  -0.00019   0.00046   0.00027   0.06450
   D14       -3.06194  -0.00000  -0.00018   0.00271   0.00254  -3.05940
   D15        3.12329   0.00003   0.00114  -0.00059   0.00055   3.12385
   D16       -0.00287   0.00002   0.00116   0.00167   0.00282  -0.00005
   D17        3.05066  -0.00002   0.00049  -0.00210  -0.00162   3.04904
   D18       -0.05407   0.00000  -0.00002  -0.00027  -0.00029  -0.05435
   D19       -0.02249  -0.00004  -0.00066  -0.00121  -0.00187  -0.02436
   D20       -3.12721  -0.00002  -0.00117   0.00063  -0.00054  -3.12776
   D21       -3.03805   0.00004  -0.00011   0.00278   0.00268  -3.03538
   D22        0.10385  -0.00003   0.00098  -0.00062   0.00037   0.10421
   D23        0.02950   0.00006   0.00108   0.00185   0.00294   0.03244
   D24       -3.11179  -0.00001   0.00217  -0.00155   0.00063  -3.11116
   D25       -0.02287  -0.00000   0.00035  -0.00027   0.00009  -0.02278
   D26        3.11634  -0.00000  -0.00003  -0.00048  -0.00051   3.11583
   D27        3.14076   0.00003   0.00158   0.00163   0.00321  -3.13921
   D28       -0.00321   0.00003   0.00120   0.00141   0.00261  -0.00060
   D29        0.00719   0.00001   0.00002   0.00013   0.00015   0.00734
   D30        3.10428  -0.00002   0.00063  -0.00210  -0.00147   3.10281
   D31        3.12837   0.00003   0.00237  -0.00054   0.00183   3.13021
   D32       -0.05772   0.00001   0.00298  -0.00277   0.00022  -0.05751
   D33       -0.00273  -0.00003  -0.00054  -0.00093  -0.00147  -0.00420
   D34        3.13450   0.00000   0.00028  -0.00041  -0.00013   3.13438
   D35       -3.12185  -0.00006  -0.00313  -0.00020  -0.00333  -3.12518
   D36        0.01538  -0.00003  -0.00230   0.00032  -0.00199   0.01340
   D37       -0.03003  -0.00000   0.00014  -0.00038  -0.00024  -0.03027
   D38        3.12107  -0.00000   0.00025   0.00068   0.00093   3.12201
   D39        3.09614   0.00000   0.00012  -0.00264  -0.00251   3.09363
   D40       -0.03594   0.00000   0.00024  -0.00158  -0.00134  -0.03728
   D41        0.00778  -0.00000   0.00028  -0.00001   0.00027   0.00805
   D42        3.13552  -0.00001   0.00042  -0.00086  -0.00043   3.13509
   D43       -3.08479   0.00003  -0.00040   0.00245   0.00205  -3.08274
   D44        0.04296   0.00002  -0.00025   0.00160   0.00134   0.04430
   D45       -0.00513   0.00002   0.00071   0.00051   0.00122  -0.00391
   D46       -3.13902  -0.00000   0.00010  -0.00016  -0.00007  -3.13909
   D47        3.13886   0.00002   0.00110   0.00073   0.00183   3.14069
   D48        0.00497   0.00000   0.00048   0.00005   0.00054   0.00551
   D49        0.01813  -0.00000  -0.00061   0.00011  -0.00050   0.01763
   D50       -3.13117   0.00002   0.00001   0.00079   0.00079  -3.13038
   D51       -3.11912  -0.00003  -0.00143  -0.00041  -0.00184  -3.12095
   D52        0.01477  -0.00001  -0.00082   0.00027  -0.00055   0.01422
   D53       -0.01411   0.00000   0.00011   0.00014   0.00025  -0.01387
   D54       -3.13491   0.00001   0.00015   0.00063   0.00078  -3.13412
   D55        3.11791   0.00000  -0.00001  -0.00093  -0.00093   3.11697
   D56       -0.00288   0.00000   0.00003  -0.00043  -0.00040  -0.00328
   D57        0.02530   0.00000  -0.00032   0.00007  -0.00026   0.02504
   D58       -3.13711  -0.00000  -0.00037  -0.00042  -0.00079  -3.13790
   D59       -3.10248   0.00001  -0.00046   0.00091   0.00045  -3.10203
   D60        0.01830   0.00000  -0.00051   0.00042  -0.00009   0.01821
   D61       -0.05646   0.00007   0.00258  -0.00649  -0.00391  -0.06036
   D62        3.07943   0.00010  -0.00055  -0.00005  -0.00059   3.07884
   D63        2.67522  -0.00018  -0.01678  -0.04360  -0.06040   2.61483
   D64       -0.47208  -0.00014  -0.01991  -0.03716  -0.05707  -0.52915
   D65        0.02179  -0.00004  -0.00107   0.00504   0.00397   0.02576
   D66       -3.08779   0.00005  -0.00016   0.01054   0.01037  -3.07742
   D67       -2.71991   0.00024   0.01718   0.04141   0.05858  -2.66133
   D68        0.45370   0.00033   0.01809   0.04691   0.06498   0.51867
   D69        1.26785  -0.00004   0.00930   0.02023   0.02942   1.29726
   D70       -1.87411   0.00004   0.00802   0.02422   0.03213  -1.84198
   D71       -2.28782  -0.00024  -0.00955  -0.01645  -0.02589  -2.31371
   D72        0.85342  -0.00017  -0.01083  -0.01246  -0.02318   0.83024
   D73        0.04056  -0.00007  -0.00266   0.00179  -0.00086   0.03970
   D74       -3.09527  -0.00004  -0.00413   0.00002  -0.00410  -3.09937
   D75       -3.09533  -0.00010   0.00045  -0.00463  -0.00418  -3.09951
   D76        0.05203  -0.00008  -0.00102  -0.00640  -0.00742   0.04461
   D77       -1.77870  -0.00002   0.00897   0.02812   0.03709  -1.74162
   D78        1.19063  -0.00009   0.00715   0.02378   0.03093   1.22156
   D79        1.35721   0.00001   0.00588   0.03451   0.04039   1.39760
   D80       -1.95664  -0.00005   0.00405   0.03018   0.03423  -1.92241
   D81        0.01141   0.00004   0.00128   0.00479   0.00607   0.01748
   D82        2.94459   0.00003  -0.00087   0.00506   0.00419   2.94878
   D83       -3.13596   0.00001   0.00275   0.00656   0.00932  -3.12664
   D84       -0.20278   0.00000   0.00060   0.00684   0.00744  -0.19534
   D85       -0.04631  -0.00000   0.00027  -0.00623  -0.00596  -0.05227
   D86        3.04500  -0.00005  -0.00129  -0.00950  -0.01079   3.03420
   D87       -2.97889  -0.00000   0.00248  -0.00672  -0.00424  -2.98313
   D88        0.11242  -0.00005   0.00092  -0.00998  -0.00907   0.10335
   D89        0.63708   0.00002  -0.00522   0.00246  -0.00276   0.63432
   D90        2.96071  -0.00003  -0.00555   0.00145  -0.00409   2.95662
   D91       -1.33913  -0.00004  -0.00596   0.00235  -0.00360  -1.34273
   D92       -2.71132   0.00001  -0.00741   0.00287  -0.00455  -2.71587
   D93       -0.38769  -0.00004  -0.00774   0.00186  -0.00588  -0.39357
   D94        1.59566  -0.00005  -0.00815   0.00277  -0.00539   1.59027
   D95        0.02849   0.00001  -0.00029   0.00120   0.00090   0.02939
   D96        3.13688  -0.00009  -0.00127  -0.00464  -0.00593   3.13094
   D97       -3.06222   0.00005   0.00123   0.00457   0.00580  -3.05642
   D98        0.04617  -0.00005   0.00025  -0.00127  -0.00103   0.04514
   D99       -2.23592  -0.00003  -0.01284  -0.01057  -0.02340  -2.25931
   D100       0.80291  -0.00006  -0.00446  -0.02077  -0.02522   0.77769
   D101       0.93754   0.00006  -0.01193  -0.00510  -0.01704   0.92050
   D102      -2.30682   0.00004  -0.00356  -0.01530  -0.01886  -2.32568
   D103      -1.55176   0.00000   0.00024  -0.00493  -0.00469  -1.55645
   D104       1.52672   0.00001  -0.00046  -0.00255  -0.00301   1.52371
   D105       2.73886  -0.00002   0.00012  -0.00451  -0.00439   2.73446
   D106      -0.46585  -0.00001  -0.00058  -0.00212  -0.00271  -0.46856
   D107       0.43788   0.00002  -0.00044  -0.00396  -0.00440   0.43348
   D108      -2.76683   0.00003  -0.00114  -0.00158  -0.00272  -2.76954
   D109      -0.00481  -0.00000   0.00005  -0.00007  -0.00003  -0.00484
   D110      -3.12728  -0.00000   0.00020   0.00016   0.00036  -3.12692
   D111       3.13161   0.00000   0.00009  -0.00003   0.00006   3.13167
   D112       0.00914   0.00000   0.00025   0.00020   0.00045   0.00959
   D113       0.00978   0.00000  -0.00002   0.00015   0.00013   0.00992
   D114      -3.14069  -0.00000  -0.00007   0.00035   0.00028  -3.14041
   D115      -3.12662  -0.00000  -0.00006   0.00011   0.00004  -3.12658
   D116       0.00609  -0.00000  -0.00012   0.00031   0.00019   0.00628
   D117       3.07357   0.00000  -0.00064   0.00207   0.00143   3.07500
   D118      -0.00362  -0.00000   0.00005  -0.00032  -0.00027  -0.00389
   D119      -0.08683   0.00000  -0.00080   0.00184   0.00105  -0.08579
   D120       3.11916  -0.00000  -0.00011  -0.00055  -0.00065   3.11851
   D121      -3.07025   0.00000   0.00055  -0.00181  -0.00126  -3.07150
   D122       0.09507   0.00000   0.00021  -0.00177  -0.00156   0.09352
   D123       0.00703   0.00001  -0.00017   0.00064   0.00046   0.00749
   D124      -3.11084   0.00001  -0.00051   0.00068   0.00016  -3.11068
   D125      -0.00201  -0.00001   0.00020  -0.00055  -0.00035  -0.00236
   D126      -3.13432  -0.00001  -0.00002  -0.00068  -0.00069  -3.13502
   D127       3.11552  -0.00001   0.00055  -0.00059  -0.00004   3.11548
   D128      -0.01679  -0.00001   0.00033  -0.00071  -0.00038  -0.01717
   D129      -0.00632   0.00000  -0.00011   0.00016   0.00006  -0.00626
   D130      -3.13903   0.00000  -0.00005  -0.00004  -0.00009  -3.13912
   D131       3.12595   0.00000   0.00011   0.00029   0.00040   3.12635
   D132      -0.00676   0.00000   0.00017   0.00009   0.00025  -0.00651
   D133      -0.00163   0.00000   0.00015   0.00024   0.00039  -0.00123
   D134      -3.13795  -0.00000   0.00012  -0.00012  -0.00001  -3.13796
   D135       3.13643   0.00001   0.00005   0.00035   0.00040   3.13683
   D136       0.00010   0.00000   0.00002  -0.00002  -0.00000   0.00010
   D137      -0.00255  -0.00000  -0.00017  -0.00040  -0.00058  -0.00313
   D138      -3.14090   0.00001  -0.00024  -0.00030  -0.00054  -3.14144
   D139      -3.14059  -0.00001  -0.00008  -0.00051  -0.00059  -3.14118
   D140       0.00424   0.00000  -0.00015  -0.00040  -0.00055   0.00369
   D141       0.00160  -0.00000  -0.00005   0.00027   0.00021   0.00182
   D142      -3.12891  -0.00000   0.00030  -0.00084  -0.00055  -3.12946
   D143       3.13794  -0.00000  -0.00002   0.00063   0.00061   3.13856
   D144       0.00743  -0.00000   0.00033  -0.00048  -0.00015   0.00728
   D145       0.00258   0.00001  -0.00002  -0.00062  -0.00064   0.00194
   D146       3.11634   0.00000   0.00103  -0.00066   0.00037   3.11671
   D147       3.13315   0.00001  -0.00037   0.00049   0.00013   3.13327
   D148      -0.03628   0.00000   0.00068   0.00045   0.00114  -0.03514
   D149      -0.00672  -0.00001  -0.00001   0.00047   0.00046  -0.00627
   D150       3.12399  -0.00002   0.00079  -0.00078   0.00001   3.12400
   D151      -3.12536  -0.00000  -0.00088   0.00051  -0.00036  -3.12572
   D152       0.00535  -0.00001  -0.00008  -0.00073  -0.00081   0.00454
   D153      -0.12899  -0.00006  -0.00243  -0.00274  -0.00517  -0.13417
   D154      -3.12538   0.00003  -0.00093   0.00117   0.00024  -3.12513
   D155       2.98766  -0.00007  -0.00149  -0.00277  -0.00426   2.98340
   D156      -0.00873   0.00002   0.00001   0.00114   0.00115  -0.00757
   D157       0.00655   0.00000   0.00010   0.00006   0.00016   0.00671
   D158      -3.13829  -0.00000   0.00017  -0.00005   0.00013  -3.13816
   D159      -3.12054   0.00002  -0.00096   0.00172   0.00077  -3.11977
   D160       0.01781   0.00001  -0.00089   0.00162   0.00073   0.01854
   D161      -0.00004   0.00000   0.00011   0.00005   0.00017   0.00012
   D162       3.14001   0.00002   0.00015   0.00300   0.00315  -3.14002
   D163       3.12834  -0.00001   0.00108  -0.00146  -0.00039   3.12795
   D164      -0.01479   0.00000   0.00111   0.00148   0.00260  -0.01219
   D165       0.02486  -0.00002  -0.00023  -0.00256  -0.00279   0.02206
   D166      -3.11622  -0.00003   0.00020  -0.00419  -0.00399  -3.12022
   D167      -3.13469   0.00001   0.00018   0.00252   0.00270  -3.13199
   D168       0.00742  -0.00001   0.00061   0.00089   0.00150   0.00892
   D169       3.12154   0.00003   0.00023   0.00482   0.00505   3.12659
   D170      -0.01878   0.00002   0.00020   0.00238   0.00259  -0.01620
   D171      -0.00528   0.00001  -0.00011   0.00064   0.00053  -0.00475
   D172       3.13759  -0.00000  -0.00014  -0.00180  -0.00193   3.13565
   D173       0.17490  -0.00002   0.00137  -0.00209  -0.00072   0.17417
   D174      -3.11679  -0.00005  -0.00030  -0.00568  -0.00598  -3.12277
   D175      -2.98281   0.00001   0.00174   0.00248   0.00422  -2.97859
   D176       0.00870  -0.00002   0.00006  -0.00111  -0.00104   0.00765
   D177      -0.01299   0.00001   0.00008   0.00103   0.00111  -0.01188
   D178       3.13355   0.00000   0.00026   0.00036   0.00062   3.13417
   D179       3.12809   0.00002  -0.00035   0.00266   0.00231   3.13040
   D180      -0.00856   0.00002  -0.00017   0.00199   0.00182  -0.00674
   D181      -0.00493   0.00001   0.00011   0.00069   0.00080  -0.00413
   D182      -3.13869   0.00000   0.00009  -0.00005   0.00004  -3.13865
   D183       3.13170   0.00001  -0.00008   0.00137   0.00129   3.13298
   D184      -0.00207   0.00000  -0.00010   0.00063   0.00053  -0.00153
   D185       0.01140  -0.00001  -0.00014  -0.00090  -0.00104   0.01036
   D186      -3.13035  -0.00001  -0.00019  -0.00144  -0.00162  -3.13197
   D187      -3.13804   0.00000  -0.00012  -0.00016  -0.00028  -3.13833
   D188       0.00339  -0.00001  -0.00016  -0.00070  -0.00087   0.00253
   D189      -3.13978  -0.00002  -0.00005  -0.00383  -0.00388   3.13952
   D190       0.00012  -0.00001  -0.00001  -0.00059  -0.00060  -0.00048
   D191       0.00196  -0.00002  -0.00000  -0.00329  -0.00330  -0.00133
   D192      -3.14132  -0.00000   0.00003  -0.00005  -0.00002  -3.14134
   D193      -0.00367   0.00000   0.00012   0.00010   0.00022  -0.00345
   D194      -3.13968  -0.00000  -0.00017   0.00021   0.00004  -3.13965
   D195       3.13843   0.00000   0.00009   0.00018   0.00027   3.13869
   D196       0.00241  -0.00000  -0.00020   0.00028   0.00008   0.00250
   D197       0.00561  -0.00000   0.00020   0.00014   0.00034   0.00595
   D198      -3.12961   0.00000   0.00036   0.00005   0.00041  -3.12920
   D199      -3.13649  -0.00000   0.00022   0.00006   0.00029  -3.13620
   D200       0.01147   0.00000   0.00039  -0.00002   0.00037   0.01184
   D201      -0.00402  -0.00000  -0.00043   0.00006  -0.00037  -0.00439
   D202      -3.13442  -0.00001  -0.00029   0.00038   0.00010  -3.13432
   D203       3.13202   0.00000  -0.00014  -0.00005  -0.00018   3.13184
   D204       0.00162  -0.00000   0.00000   0.00028   0.00028   0.00190
   D205       0.00985  -0.00000   0.00043  -0.00047  -0.00003   0.00982
   D206       3.09000  -0.00002  -0.00069  -0.00013  -0.00083   3.08917
   D207       3.14020   0.00000   0.00029  -0.00081  -0.00052   3.13968
   D208      -0.06284  -0.00001  -0.00083  -0.00048  -0.00132  -0.06415
   D209      -0.00804   0.00000  -0.00013   0.00071   0.00058  -0.00746
   D210       3.12124   0.00000   0.00007  -0.00028  -0.00021   3.12102
   D211      -3.09932   0.00001   0.00079   0.00037   0.00116  -3.09816
   D212       0.02997   0.00001   0.00099  -0.00063   0.00036   0.03032
   D213      -0.07724  -0.00005   0.00642  -0.00798  -0.00156  -0.07880
   D214      -3.13093   0.00001  -0.00074   0.00098   0.00025  -3.13068
   D215       3.00914  -0.00006   0.00541  -0.00769  -0.00228   3.00685
   D216      -0.04455  -0.00000  -0.00175   0.00128  -0.00048  -0.04503
   D217       0.00011  -0.00000  -0.00019  -0.00053  -0.00072  -0.00061
   D218       3.13533  -0.00001  -0.00036  -0.00044  -0.00080   3.13453
   D219      -3.12525  -0.00000  -0.00046   0.00077   0.00031  -3.12494
   D220       0.00997  -0.00001  -0.00062   0.00085   0.00023   0.01020
   D221      -0.00424  -0.00001   0.00014  -0.00025  -0.00010  -0.00434
   D222       3.10102  -0.00002  -0.00036   0.00008  -0.00028   3.10074
   D223       3.12261  -0.00001   0.00039  -0.00142  -0.00104   3.12157
   D224      -0.05532  -0.00002  -0.00011  -0.00110  -0.00121  -0.05653
   D225       0.06255   0.00001   0.00082   0.00031   0.00112   0.06368
   D226      -3.07165  -0.00003   0.00134  -0.00151  -0.00016  -3.07182
   D227       3.13075   0.00001   0.00087  -0.00071   0.00016   3.13092
   D228      -0.00346  -0.00002   0.00140  -0.00252  -0.00112  -0.00458
   D229       3.05813  -0.00001  -0.00116   0.00011  -0.00105   3.05708
   D230      -0.05327  -0.00001  -0.00074  -0.00017  -0.00091  -0.05417
   D231      -0.02294   0.00000  -0.00121   0.00101  -0.00021  -0.02315
   D232      -3.13433   0.00000  -0.00079   0.00072  -0.00007  -3.13440
   D233       0.19548  -0.00001  -0.00536   0.00797   0.00260   0.19809
   D234      -3.03379  -0.00000   0.00180  -0.00050   0.00130  -3.03249
   D235      -3.01199  -0.00000  -0.00531   0.00706   0.00175  -3.01024
   D236       0.04192   0.00001   0.00185  -0.00141   0.00044   0.04237
   D237      -0.02962   0.00000  -0.00041  -0.00028  -0.00070  -0.03032
   D238       3.12109  -0.00001  -0.00018  -0.00080  -0.00098   3.12012
   D239       3.10455   0.00003  -0.00094   0.00153   0.00059   3.10513
   D240      -0.02792   0.00002  -0.00071   0.00101   0.00030  -0.02762
   D241      -0.01251   0.00000  -0.00008   0.00016   0.00008  -0.01243
   D242      -3.13531  -0.00000   0.00027   0.00007   0.00033  -3.13497
   D243       3.11990   0.00001  -0.00031   0.00067   0.00036   3.12026
   D244      -0.00290   0.00001   0.00003   0.00058   0.00062  -0.00228
   D245       0.02282  -0.00001   0.00018  -0.00001   0.00017   0.02299
   D246      -3.10943   0.00000   0.00045  -0.00002   0.00043  -3.10901
   D247      -3.13759  -0.00000  -0.00016   0.00008  -0.00009  -3.13768
   D248       0.01334   0.00001   0.00011   0.00007   0.00018   0.01351
   D249      -3.09249   0.00001   0.00077  -0.00035   0.00042  -3.09206
   D250       0.00909   0.00000   0.00022   0.00001   0.00023   0.00932
   D251       0.03976   0.00001   0.00050  -0.00034   0.00016   0.03992
   D252       3.14134  -0.00000  -0.00006   0.00002  -0.00003   3.14131
         Item               Value     Threshold  Converged?
 Maximum Force            0.000581     0.000450     NO 
 RMS     Force            0.000080     0.000300     YES
 Maximum Displacement     0.280311     0.001800     NO 
 RMS     Displacement     0.073760     0.001200     NO 
 Predicted change in Energy=-4.270896D-05
 GradGradGradGradGradGradGradGradGradGradGradGradGradGradGradGradGradGrad

 Leave Link  103 at Thu Oct 31 23:46:57 2024, MaxMem=  2147483648 cpu:             322.6 elap:              54.0
 (Enter /apps/gaussian/g16/l202.exe)
 Stoichiometry    C48H31N3O2S
 Framework group  C1[X(C48H31N3O2S)]
 Deg. of freedom   249
 Full point group                 C1      NOp   1
 RotChk:  IX=0 Diff= 7.18D-02
 Largest Abelian subgroup         C1      NOp   1
 Largest concise Abelian subgroup C1      NOp   1
                         Standard orientation:                         
 ---------------------------------------------------------------------
 Center     Atomic      Atomic             Coordinates (Angstroms)
 Number     Number       Type             X           Y           Z
 ---------------------------------------------------------------------
      1          6           0        1.898267    1.485311    0.666345
      2          6           0        2.438597    0.029381   -0.978320
      3          6           0        1.241398    2.198728    1.670349
      4          6           0        3.269271    1.683773    0.379785
      5          6           0        2.378831   -0.887058   -2.025770
      6          6           0        3.616278    0.743173   -0.672724
      7          6           0        1.975248    3.156875    2.362012
      8          1           0        0.194428    2.030553    1.887268
      9          6           0        3.987743    2.634768    1.094573
     10          6           0        3.558149   -1.139557   -2.725659
     11          1           0        1.449137   -1.371838   -2.296720
     12          6           0        4.779062    0.487005   -1.391971
     13          6           0        3.329502    3.375937    2.078778
     14          1           0        1.484563    3.743063    3.130570
     15          1           0        5.041262    2.798046    0.895289
     16          6           0        4.745031   -0.469360   -2.409878
     17          1           0        3.547070   -1.861657   -3.534180
     18          1           0        5.693728    1.029028   -1.176910
     19          6           0        0.085138   -0.032047   -0.122609
     20          6           0       -1.005139    0.752499   -0.702538
     21          6           0       -2.085381    0.130879   -1.249491
     22          6           0       -2.204741   -1.302620   -1.227836
     23          6           0       -1.203792   -2.091414   -0.614627
     24          6           0       -0.087066   -1.487043   -0.094225
     25          7           0        1.400478    0.467701   -0.141136
     26         16           0       -3.730312   -2.041327   -1.674894
     27          8           0       -4.320067   -1.248106   -2.758642
     28          8           0       -3.505900   -3.485323   -1.814786
     29          1           0        3.876546    4.128330    2.636249
     30          1           0        5.645303   -0.681211   -2.976032
     31          1           0       -2.864892    0.727137   -1.709734
     32          1           0       -1.351959   -3.160122   -0.515691
     33          6           0       -5.511329   -2.528723    1.939228
     34          6           0       -4.767750   -2.760298    0.784450
     35          6           0       -4.767415   -1.798856   -0.227101
     36          6           0       -5.499986   -0.616989   -0.103260
     37          6           0       -6.236566   -0.394491    1.058358
     38          6           0       -6.239635   -1.346082    2.079147
     39          1           0       -5.526186   -3.273386    2.727960
     40          1           0       -4.206735   -3.678217    0.651701
     41          1           0       -5.505585    0.100349   -0.915811
     42          1           0       -6.814105    0.517935    1.161858
     43          1           0       -6.816437   -1.169841    2.981067
     44          6           0       -2.599086    4.952494    1.888017
     45          6           0       -3.027534    3.621526    2.022190
     46          6           0       -2.536199    2.614745    1.196442
     47          6           0       -1.597818    2.978837    0.229417
     48          6           0       -1.149421    4.311899    0.080092
     49          6           0       -1.663963    5.303941    0.920150
     50          1           0       -3.005816    5.713447    2.545436
     51          1           0       -3.760520    3.370953    2.782153
     52          1           0       -2.873254    1.588219    1.290203
     53          1           0       -1.335417    6.333378    0.819809
     54          6           0       -0.076644    2.968017   -1.442090
     55          6           0        0.768182    2.601099   -2.489788
     56          6           0        1.542700    3.599559   -3.068667
     57          6           0        1.469110    4.931311   -2.627533
     58          6           0        0.610062    5.291019   -1.595829
     59          6           0       -0.174573    4.304167   -0.991138
     60          1           0        0.818646    1.575970   -2.838214
     61          1           0        2.214195    3.342015   -3.880925
     62          1           0        2.085672    5.686330   -3.103319
     63          1           0        0.548901    6.322176   -1.263228
     64          7           0       -0.938330    2.170319   -0.692650
     65          6           0        3.255156   -5.436295   -0.698164
     66          6           0        2.201008   -5.060686   -1.541915
     67          6           0        1.349018   -4.010270   -1.213175
     68          6           0        1.579688   -3.345446   -0.006113
     69          6           0        2.643820   -3.709403    0.852507
     70          6           0        3.484843   -4.762194    0.499936
     71          1           0        3.899299   -6.261108   -0.982398
     72          1           0        2.038655   -5.599674   -2.468789
     73          1           0        0.532444   -3.730186   -1.867201
     74          1           0        4.308814   -5.048704    1.144574
     75          6           0        1.521149   -1.924806    1.762078
     76          6           0        1.129881   -0.979408    2.708238
     77          6           0        1.898139   -0.873483    3.865374
     78          6           0        2.999282   -1.710431    4.086105
     79          6           0        3.350200   -2.687941    3.155581
     80          6           0        2.602528   -2.801813    1.985001
     81          1           0        0.257826   -0.358058    2.546909
     82          1           0        1.629222   -0.132633    4.609938
     83          1           0        3.574339   -1.607916    4.999725
     84          1           0        4.185365   -3.353996    3.344233
     85          7           0        0.921961   -2.236747    0.533437
 ---------------------------------------------------------------------
 Rotational constants (GHZ):           0.0626344           0.0570370           0.0406900
 Leave Link  202 at Thu Oct 31 23:46:58 2024, MaxMem=  2147483648 cpu:               0.7 elap:               0.1
 (Enter /apps/gaussian/g16/l301.exe)
 Standard basis: 6-31G(d,p) (6D, 7F)
 Ernie: Thresh=  0.10000D-02 Tol=  0.10000D-05 Strict=F.
 There are   969 symmetry adapted cartesian basis functions of A   symmetry.
 There are   969 symmetry adapted basis functions of A   symmetry.
   969 basis functions,  1753 primitive gaussians,   969 cartesian basis functions
   186 alpha electrons      186 beta electrons
       nuclear repulsion energy      7521.9544753535 Hartrees.
 IExCor= 4639 DFT=T Ex+Corr=wB97XD ExCW=0 ScaHFX=  1.000000
 ScaDFX=  1.000000  1.000000  1.000000  1.000000 ScalE2=  1.000000  1.000000
 IRadAn=      5 IRanWt=     -1 IRanGd=            0 ICorTp=0 IEmpDi=121
 HFx  wShort=  0.000000 wLong=  0.119500 cFull=  0.222036 cShort=  0.000000 cLong=  0.777964
 DFx  wShort=  0.000000 wLong=  0.119500 cFull=  0.000000 cShort=  0.000000 cLong=  1.000000
 NAtoms=   85 NActive=   85 NUniq=   85 SFac= 1.00D+00 NAtFMM=   60 NAOKFM=T Big=T
 Integral buffers will be    131072 words long.
 Raffenetti 1 integral format.
 Two-electron integral symmetry is turned on.
 R6Disp:  Grimme-D2 Dispersion energy=       -0.0953423762 Hartrees.
 Nuclear repulsion after empirical dispersion term =     7521.8591329772 Hartrees.
 Leave Link  301 at Thu Oct 31 23:46:58 2024, MaxMem=  2147483648 cpu:               1.3 elap:               0.2
 (Enter /apps/gaussian/g16/l302.exe)
 NPDir=0 NMtPBC=     1 NCelOv=     1 NCel=       1 NClECP=     1 NCelD=      1
         NCelK=      1 NCelE2=     1 NClLst=     1 CellRange=     0.0.
 One-electron integrals computed using PRISM.
 One-electron integral symmetry used in STVInt
 NBasis=   969 RedAO= T EigKep=  2.62D-04  NBF=   969
 NBsUse=   969 1.00D-06 EigRej= -1.00D+00 NBFU=   969
 Precomputing XC quadrature grid using
 IXCGrd= 4 IRadAn=           5 IRanWt=          -1 IRanGd=           0 AccXCQ= 0.00D+00.
 Generated NRdTot=       0 NPtTot=           0 NUsed=           0 NTot=          32
 NSgBfM=   943   942   943   943   943 MxSgAt=    85 MxSgA2=    85.
 Leave Link  302 at Thu Oct 31 23:47:07 2024, MaxMem=  2147483648 cpu:              88.4 elap:               9.3
 (Enter /apps/gaussian/g16/l303.exe)
 DipDrv:  MaxL=1.
 Leave Link  303 at Thu Oct 31 23:47:08 2024, MaxMem=  2147483648 cpu:               2.7 elap:               0.4
 (Enter /apps/gaussian/g16/l308.exe)
 Leave Link  308 at Thu Oct 31 23:47:08 2024, MaxMem=  2147483648 cpu:               2.8 elap:               0.5
 (Enter /apps/gaussian/g16/l401.exe)
 Initial guess from the checkpoint file:  "YZ-VIII-197.chk"
 B after Tr=    -0.000000    0.000000    0.000000
         Rot=    0.999684    0.001584   -0.002768    0.024915 Ang=   2.88 deg.
 Guess basis will be translated and rotated to current coordinates.
 JPrj=2 DoOrth=T DoCkMO=T.
 Generating alternative initial guess.
 ExpMin= 1.17D-01 ExpMax= 2.19D+04 ExpMxC= 3.30D+03 IAcc=3 IRadAn=         5 AccDes= 0.00D+00
 Harris functional with IExCor= 4639 and IRadAn=       5 diagonalized for initial guess.
 HarFok:  IExCor= 4639 AccDes= 0.00D+00 IRadAn=         5 IDoV= 1 UseB2=F ITyADJ=14
 ICtDFT=  3500011 ScaDFX=  1.000000  1.000000  1.000000  1.000000
 FoFCou: FMM=F IPFlag=           0 FMFlag=      100000 FMFlg1=        2001
         NFxFlg=           0 DoJE=T BraDBF=F KetDBF=T FulRan=T
         wScrn=  0.000000 ICntrl=       500 IOpCl=  0 I1Cent=   200000004 NGrid=           0
         NMat0=    1 NMatS0=      1 NMatT0=    0 NMatD0=    1 NMtDS0=    0 NMtDT0=    0
 Petite list used in FoFCou.
 Harris En= -2470.43555684109    
 Leave Link  401 at Thu Oct 31 23:47:25 2024, MaxMem=  2147483648 cpu:             150.3 elap:              16.9
 (Enter /apps/gaussian/g16/l502.exe)
 Integral symmetry usage will be decided dynamically.
 Closed shell SCF:
 Using DIIS extrapolation, IDIIS=  1040.
 NGot=  2147483648 LenX=  2145578373 LenY=  2144638443
 Requested convergence on RMS density matrix=1.00D-08 within 128 cycles.
 Requested convergence on MAX density matrix=1.00D-06.
 Requested convergence on             energy=1.00D-06.
 No special actions if energy rises.
 Fock matrices will be formed incrementally for  20 cycles.
 Integral accuracy reduced to 1.0D-05 until final iterations.

 Cycle   1  Pass 0  IDiag  1:
 FoFJK:  IHMeth= 1 ICntrl=       0 DoSepK=T KAlg= 0 I1Cent=           0 FoldK=F
 IRaf=         1 NMat=       1 IRICut=       1 DoRegI=T DoRafI=F ISym2E= 0 IDoP0=0 IntGTp=1.
 FoFCou: FMM=T IPFlag=           0 FMFlag=      100000 FMFlg1=        2001
         NFxFlg=           0 DoJE=T BraDBF=F KetDBF=F FulRan=T
         wScrn=  0.000000 ICntrl=       500 IOpCl=  0 I1Cent=           0 NGrid=           0
         NMat0=    1 NMatS0=      1 NMatT0=    0 NMatD0=    1 NMtDS0=    0 NMtDT0=    0
 Symmetry not used in FoFCou.
 FMM levels:  10  Number of levels for PrismC:   9
 E= -2560.22152449840    
 DIIS: error= 1.89D-03 at cycle   1 NSaved=   1.
 NSaved= 1 IEnMin= 1 EnMin= -2560.22152449840     IErMin= 1 ErrMin= 1.89D-03
 ErrMax= 1.89D-03  0.00D+00 EMaxC= 1.00D-01 BMatC= 6.22D-03 BMatP= 6.22D-03
 IDIUse=3 WtCom= 9.81D-01 WtEn= 1.89D-02
 Coeff-Com:  0.100D+01
 Coeff-En:   0.100D+01
 Coeff:      0.100D+01
 Gap=     1.865 Goal=   None    Shift=    0.000
 GapD=    1.865 DampG=2.000 DampE=1.000 DampFc=2.0000 IDamp=-1.
 RMSDP=1.90D-04 MaxDP=5.69D-03              OVMax= 1.06D-02

 Cycle   2  Pass 0  IDiag  1:
 RMSU=  1.90D-04    CP:  1.00D+00
 E= -2560.23196494611     Delta-E=       -0.010440447715 Rises=F Damp=F
 DIIS: error= 4.73D-04 at cycle   2 NSaved=   2.
 NSaved= 2 IEnMin= 2 EnMin= -2560.23196494611     IErMin= 2 ErrMin= 4.73D-04
 ErrMax= 4.73D-04  0.00D+00 EMaxC= 1.00D-01 BMatC= 1.66D-04 BMatP= 6.22D-03
 IDIUse=3 WtCom= 9.95D-01 WtEn= 4.73D-03
 Coeff-Com: -0.153D+00 0.115D+01
 Coeff-En:   0.000D+00 0.100D+01
 Coeff:     -0.152D+00 0.115D+01
 Gap=     0.205 Goal=   None    Shift=    0.000
 RMSDP=3.40D-05 MaxDP=1.22D-03 DE=-1.04D-02 OVMax= 2.89D-03

 Cycle   3  Pass 0  IDiag  1:
 RMSU=  2.81D-05    CP:  1.00D+00  1.10D+00
 E= -2560.23238282733     Delta-E=       -0.000417881221 Rises=F Damp=F
 DIIS: error= 1.57D-04 at cycle   3 NSaved=   3.
 NSaved= 3 IEnMin= 3 EnMin= -2560.23238282733     IErMin= 3 ErrMin= 1.57D-04
 ErrMax= 1.57D-04  0.00D+00 EMaxC= 1.00D-01 BMatC= 3.02D-05 BMatP= 1.66D-04
 IDIUse=3 WtCom= 9.98D-01 WtEn= 1.57D-03
 Coeff-Com: -0.658D-01 0.442D+00 0.624D+00
 Coeff-En:   0.000D+00 0.000D+00 0.100D+01
 Coeff:     -0.657D-01 0.441D+00 0.625D+00
 Gap=     0.205 Goal=   None    Shift=    0.000
 RMSDP=1.05D-05 MaxDP=5.76D-04 DE=-4.18D-04 OVMax= 1.42D-03

 Cycle   4  Pass 0  IDiag  1:
 RMSU=  1.05D-05    CP:  1.00D+00  1.10D+00  1.02D+00
 E= -2560.23241269478     Delta-E=       -0.000029867442 Rises=F Damp=F
 DIIS: error= 6.33D-05 at cycle   4 NSaved=   4.
 NSaved= 4 IEnMin= 4 EnMin= -2560.23241269478     IErMin= 4 ErrMin= 6.33D-05
 ErrMax= 6.33D-05  0.00D+00 EMaxC= 1.00D-01 BMatC= 7.40D-06 BMatP= 3.02D-05
 IDIUse=1 WtCom= 1.00D+00 WtEn= 0.00D+00
 Coeff-Com:  0.911D-02-0.966D-01 0.306D+00 0.782D+00
 Coeff:      0.911D-02-0.966D-01 0.306D+00 0.782D+00
 Gap=     0.205 Goal=   None    Shift=    0.000
 RMSDP=8.83D-06 MaxDP=2.94D-04 DE=-2.99D-05 OVMax= 7.25D-04

 Initial convergence to 1.0D-05 achieved.  Increase integral accuracy.
 Cycle   5  Pass 1  IDiag  1:
 E= -2560.23271834218     Delta-E=       -0.000305647400 Rises=F Damp=F
 DIIS: error= 2.99D-04 at cycle   1 NSaved=   1.
 NSaved= 1 IEnMin= 1 EnMin= -2560.23271834218     IErMin= 1 ErrMin= 2.99D-04
 ErrMax= 2.99D-04  0.00D+00 EMaxC= 1.00D-01 BMatC= 6.09D-05 BMatP= 6.09D-05
 IDIUse=3 WtCom= 9.97D-01 WtEn= 2.99D-03
 Coeff-Com:  0.100D+01
 Coeff-En:   0.100D+01
 Coeff:      0.100D+01
 Gap=     0.205 Goal=   None    Shift=    0.000
 RMSDP=8.83D-06 MaxDP=2.94D-04 DE=-3.06D-04 OVMax= 8.47D-04

 Cycle   6  Pass 1  IDiag  1:
 RMSU=  1.45D-04    CP:  1.00D+00
 E= -2560.23276588509     Delta-E=       -0.000047542913 Rises=F Damp=F
 DIIS: error= 4.91D-05 at cycle   2 NSaved=   2.
 NSaved= 2 IEnMin= 2 EnMin= -2560.23276588509     IErMin= 2 ErrMin= 4.91D-05
 ErrMax= 4.91D-05  0.00D+00 EMaxC= 1.00D-01 BMatC= 4.57D-06 BMatP= 6.09D-05
 IDIUse=1 WtCom= 1.00D+00 WtEn= 0.00D+00
 Coeff-Com:  0.738D-01 0.926D+00
 Coeff:      0.738D-01 0.926D+00
 Gap=     0.205 Goal=   None    Shift=    0.000
 RMSDP=9.16D-06 MaxDP=4.93D-04 DE=-4.75D-05 OVMax= 1.04D-03

 Cycle   7  Pass 1  IDiag  1:
 RMSU=  7.12D-06    CP:  1.00D+00  1.04D+00
 E= -2560.23275799685     Delta-E=        0.000007888244 Rises=F Damp=F
 DIIS: error= 8.42D-05 at cycle   3 NSaved=   3.
 NSaved= 3 IEnMin= 2 EnMin= -2560.23276588509     IErMin= 2 ErrMin= 4.91D-05
 ErrMax= 8.42D-05  0.00D+00 EMaxC= 1.00D-01 BMatC= 1.25D-05 BMatP= 4.57D-06
 IDIUse=1 WtCom= 1.00D+00 WtEn= 0.00D+00
 Coeff-Com: -0.227D-01 0.636D+00 0.387D+00
 Coeff:     -0.227D-01 0.636D+00 0.387D+00
 Gap=     0.205 Goal=   None    Shift=    0.000
 RMSDP=4.44D-06 MaxDP=3.31D-04 DE= 7.89D-06 OVMax= 6.52D-04

 Cycle   8  Pass 1  IDiag  1:
 RMSU=  1.12D-06    CP:  1.00D+00  1.05D+00  4.11D-01
 E= -2560.23277053648     Delta-E=       -0.000012539636 Rises=F Damp=F
 DIIS: error= 4.92D-06 at cycle   4 NSaved=   4.
 NSaved= 4 IEnMin= 4 EnMin= -2560.23277053648     IErMin= 4 ErrMin= 4.92D-06
 ErrMax= 4.92D-06  0.00D+00 EMaxC= 1.00D-01 BMatC= 4.40D-08 BMatP= 4.57D-06
 IDIUse=1 WtCom= 1.00D+00 WtEn= 0.00D+00
 Coeff-Com: -0.119D-01 0.302D+00 0.188D+00 0.522D+00
 Coeff:     -0.119D-01 0.302D+00 0.188D+00 0.522D+00
 Gap=     0.205 Goal=   None    Shift=    0.000
 RMSDP=3.34D-07 MaxDP=2.33D-05 DE=-1.25D-05 OVMax= 5.63D-05

 Cycle   9  Pass 1  IDiag  1:
 RMSU=  3.14D-07    CP:  1.00D+00  1.05D+00  4.19D-01  9.36D-01
 E= -2560.23277057934     Delta-E=       -0.000000042857 Rises=F Damp=F
 DIIS: error= 2.02D-06 at cycle   5 NSaved=   5.
 NSaved= 5 IEnMin= 5 EnMin= -2560.23277057934     IErMin= 5 ErrMin= 2.02D-06
 ErrMax= 2.02D-06  0.00D+00 EMaxC= 1.00D-01 BMatC= 4.07D-09 BMatP= 4.40D-08
 IDIUse=1 WtCom= 1.00D+00 WtEn= 0.00D+00
 Coeff-Com: -0.139D-02 0.262D-01 0.169D-01 0.222D+00 0.736D+00
 Coeff:     -0.139D-02 0.262D-01 0.169D-01 0.222D+00 0.736D+00
 Gap=     0.205 Goal=   None    Shift=    0.000
 RMSDP=1.40D-07 MaxDP=7.36D-06 DE=-4.29D-08 OVMax= 2.58D-05

 Cycle  10  Pass 1  IDiag  1:
 RMSU=  9.95D-08    CP:  1.00D+00  1.05D+00  4.19D-01  1.00D+00  8.65D-01
 E= -2560.23277058391     Delta-E=       -0.000000004573 Rises=F Damp=F
 DIIS: error= 6.53D-07 at cycle   6 NSaved=   6.
 NSaved= 6 IEnMin= 6 EnMin= -2560.23277058391     IErMin= 6 ErrMin= 6.53D-07
 ErrMax= 6.53D-07  0.00D+00 EMaxC= 1.00D-01 BMatC= 1.21D-09 BMatP= 4.07D-09
 IDIUse=1 WtCom= 1.00D+00 WtEn= 0.00D+00
 Coeff-Com:  0.928D-03-0.289D-01-0.182D-01 0.534D-01 0.428D+00 0.564D+00
 Coeff:      0.928D-03-0.289D-01-0.182D-01 0.534D-01 0.428D+00 0.564D+00
 Gap=     0.205 Goal=   None    Shift=    0.000
 RMSDP=5.78D-08 MaxDP=3.86D-06 DE=-4.57D-09 OVMax= 1.32D-05

 Cycle  11  Pass 1  IDiag  1:
 RMSU=  4.62D-08    CP:  1.00D+00  1.05D+00  4.19D-01  1.01D+00  9.45D-01
                    CP:  8.51D-01
 E= -2560.23277058545     Delta-E=       -0.000000001537 Rises=F Damp=F
 DIIS: error= 2.10D-07 at cycle   7 NSaved=   7.
 NSaved= 7 IEnMin= 7 EnMin= -2560.23277058545     IErMin= 7 ErrMin= 2.10D-07
 ErrMax= 2.10D-07  0.00D+00 EMaxC= 1.00D-01 BMatC= 7.14D-11 BMatP= 1.21D-09
 IDIUse=1 WtCom= 1.00D+00 WtEn= 0.00D+00
 Coeff-Com:  0.469D-03-0.127D-01-0.833D-02-0.714D-02 0.636D-01 0.195D+00
 Coeff-Com:  0.769D+00
 Coeff:      0.469D-03-0.127D-01-0.833D-02-0.714D-02 0.636D-01 0.195D+00
 Coeff:      0.769D+00
 Gap=     0.205 Goal=   None    Shift=    0.000
 RMSDP=2.44D-08 MaxDP=1.17D-06 DE=-1.54D-09 OVMax= 8.55D-06

 Cycle  12  Pass 1  IDiag  1:
 RMSU=  1.74D-08    CP:  1.00D+00  1.05D+00  4.19D-01  1.02D+00  9.52D-01
                    CP:  9.86D-01  1.18D+00
 E= -2560.23277058576     Delta-E=       -0.000000000313 Rises=F Damp=F
 DIIS: error= 1.09D-07 at cycle   8 NSaved=   8.
 NSaved= 8 IEnMin= 8 EnMin= -2560.23277058576     IErMin= 8 ErrMin= 1.09D-07
 ErrMax= 1.09D-07  0.00D+00 EMaxC= 1.00D-01 BMatC= 2.51D-11 BMatP= 7.14D-11
 IDIUse=1 WtCom= 1.00D+00 WtEn= 0.00D+00
 Coeff-Com: -0.172D-04 0.148D-02 0.583D-03-0.186D-01-0.853D-01-0.554D-01
 Coeff-Com:  0.388D+00 0.769D+00
 Coeff:     -0.172D-04 0.148D-02 0.583D-03-0.186D-01-0.853D-01-0.554D-01
 Coeff:      0.388D+00 0.769D+00
 Gap=     0.205 Goal=   None    Shift=    0.000
 RMSDP=1.63D-08 MaxDP=7.69D-07 DE=-3.13D-10 OVMax= 6.02D-06

 Cycle  13  Pass 1  IDiag  1:
 RMSU=  8.24D-09    CP:  1.00D+00  1.05D+00  4.19D-01  1.02D+00  9.62D-01
                    CP:  1.06D+00  1.42D+00  9.89D-01
 E= -2560.23277058574     Delta-E=        0.000000000027 Rises=F Damp=F
 DIIS: error= 4.33D-08 at cycle   9 NSaved=   9.
 NSaved= 9 IEnMin= 8 EnMin= -2560.23277058576     IErMin= 9 ErrMin= 4.33D-08
 ErrMax= 4.33D-08  0.00D+00 EMaxC= 1.00D-01 BMatC= 5.07D-12 BMatP= 2.51D-11
 IDIUse=1 WtCom= 1.00D+00 WtEn= 0.00D+00
 Coeff-Com: -0.907D-04 0.301D-02 0.171D-02-0.850D-02-0.559D-01-0.629D-01
 Coeff-Com:  0.672D-01 0.402D+00 0.654D+00
 Coeff:     -0.907D-04 0.301D-02 0.171D-02-0.850D-02-0.559D-01-0.629D-01
 Coeff:      0.672D-01 0.402D+00 0.654D+00
 Gap=     0.205 Goal=   None    Shift=    0.000
 RMSDP=6.30D-09 MaxDP=2.88D-07 DE= 2.73D-11 OVMax= 2.55D-06

 SCF Done:  E(RwB97XD) =  -2560.23277059     A.U. after   13 cycles
            NFock= 13  Conv=0.63D-08     -V/T= 2.0084
 KE= 2.538852559307D+03 PE=-2.100286057333D+04 EE= 8.381916110464D+03
 Leave Link  502 at Thu Oct 31 23:54:36 2024, MaxMem=  2147483648 cpu:            4001.3 elap:             430.6
 (Enter /apps/gaussian/g16/l801.exe)
 DoSCS=F DFT=T ScalE2(SS,OS)=  1.000000  1.000000
 ExpMin= 1.17D-01 ExpMax= 2.19D+04 ExpMxC= 3.30D+03 IAcc=3 IRadAn=         5 AccDes= 0.00D+00
 HarFok:  IExCor=  205 AccDes= 0.00D+00 IRadAn=         5 IDoV=-2 UseB2=F ITyADJ=14
 ICtDFT= 12500011 ScaDFX=  1.000000  1.000000  1.000000  1.000000
 GSVD:  LWork=       -3828 too small for GESVD, short by       17690 words or       17690 for optimal perf.
 Largest valence mixing into a core orbital is  1.65D-04
 Largest core mixing into a valence orbital is  3.43D-05
 Range of M.O.s used for correlation:    59   969
 NBasis=   969 NAE=   186 NBE=   186 NFC=    58 NFV=     0
 NROrb=    911 NOA=   128 NOB=   128 NVA=   783 NVB=   783
 Leave Link  801 at Thu Oct 31 23:54:39 2024, MaxMem=  2147483648 cpu:              25.3 elap:               2.6
 (Enter /apps/gaussian/g16/l914.exe)
 RHF ground state
 Two-electron integrals replicated using symmetry.
 MDV=  2147483648 DFT=T DoStab=F Mixed=T DoRPA=F DoScal=F NonHer=F
 Making orbital integer symmetry assigments:
 Orbital symmetries:
       Occupied  (A) (A) (A) (A) (A) (A) (A) (A) (A) (A) (A) (A)
                 (A) (A) (A) (A) (A) (A) (A) (A) (A) (A) (A) (A)
                 (A) (A) (A) (A) (A) (A) (A) (A) (A) (A) (A) (A)
                 (A) (A) (A) (A) (A) (A) (A) (A) (A) (A) (A) (A)
                 (A) (A) (A) (A) (A) (A) (A) (A) (A) (A) (A) (A)
                 (A) (A) (A) (A) (A) (A) (A) (A) (A) (A) (A) (A)
                 (A) (A) (A) (A) (A) (A) (A) (A) (A) (A) (A) (A)
                 (A) (A) (A) (A) (A) (A) (A) (A) (A) (A) (A) (A)
                 (A) (A) (A) (A) (A) (A) (A) (A) (A) (A) (A) (A)
                 (A) (A) (A) (A) (A) (A) (A) (A) (A) (A) (A) (A)
                 (A) (A) (A) (A) (A) (A) (A) (A) (A) (A) (A) (A)
                 (A) (A) (A) (A) (A) (A) (A) (A) (A) (A) (A) (A)
                 (A) (A) (A) (A) (A) (A) (A) (A) (A) (A) (A) (A)
                 (A) (A) (A) (A) (A) (A) (A) (A) (A) (A) (A) (A)
                 (A) (A) (A) (A) (A) (A) (A) (A) (A) (A) (A) (A)
                 (A) (A) (A) (A) (A) (A)
       Virtual   (A) (A) (A) (A) (A) (A) (A) (A) (A) (A) (A) (A)
                 (A) (A) (A) (A) (A) (A) (A) (A) (A) (A) (A) (A)
                 (A) (A) (A) (A) (A) (A) (A) (A) (A) (A) (A) (A)
                 (A) (A) (A) (A) (A) (A) (A) (A) (A) (A) (A) (A)
                 (A) (A) (A) (A) (A) (A) (A) (A) (A) (A) (A) (A)
                 (A) (A) (A) (A) (A) (A) (A) (A) (A) (A) (A) (A)
                 (A) (A) (A) (A) (A) (A) (A) (A) (A) (A) (A) (A)
                 (A) (A) (A) (A) (A) (A) (A) (A) (A) (A) (A) (A)
                 (A) (A) (A) (A) (A) (A) (A) (A) (A) (A) (A) (A)
                 (A) (A) (A) (A) (A) (A) (A) (A) (A) (A) (A) (A)
                 (A) (A) (A) (A) (A) (A) (A) (A) (A) (A) (A) (A)
                 (A) (A) (A) (A) (A) (A) (A) (A) (A) (A) (A) (A)
                 (A) (A) (A) (A) (A) (A) (A) (A) (A) (A) (A) (A)
                 (A) (A) (A) (A) (A) (A) (A) (A) (A) (A) (A) (A)
                 (A) (A) (A) (A) (A) (A) (A) (A) (A) (A) (A) (A)
                 (A) (A) (A) (A) (A) (A) (A) (A) (A) (A) (A) (A)
                 (A) (A) (A) (A) (A) (A) (A) (A) (A) (A) (A) (A)
                 (A) (A) (A) (A) (A) (A) (A) (A) (A) (A) (A) (A)
                 (A) (A) (A) (A) (A) (A) (A) (A) (A) (A) (A) (A)
                 (A) (A) (A) (A) (A) (A) (A) (A) (A) (A) (A) (A)
                 (A) (A) (A) (A) (A) (A) (A) (A) (A) (A) (A) (A)
                 (A) (A) (A) (A) (A) (A) (A) (A) (A) (A) (A) (A)
                 (A) (A) (A) (A) (A) (A) (A) (A) (A) (A) (A) (A)
                 (A) (A) (A) (A) (A) (A) (A) (A) (A) (A) (A) (A)
                 (A) (A) (A) (A) (A) (A) (A) (A) (A) (A) (A) (A)
                 (A) (A) (A) (A) (A) (A) (A) (A) (A) (A) (A) (A)
                 (A) (A) (A) (A) (A) (A) (A) (A) (A) (A) (A) (A)
                 (A) (A) (A) (A) (A) (A) (A) (A) (A) (A) (A) (A)
                 (A) (A) (A) (A) (A) (A) (A) (A) (A) (A) (A) (A)
                 (A) (A) (A) (A) (A) (A) (A) (A) (A) (A) (A) (A)
                 (A) (A) (A) (A) (A) (A) (A) (A) (A) (A) (A) (A)
                 (A) (A) (A) (A) (A) (A) (A) (A) (A) (A) (A) (A)
                 (A) (A) (A) (A) (A) (A) (A) (A) (A) (A) (A) (A)
                 (A) (A) (A) (A) (A) (A) (A) (A) (A) (A) (A) (A)
                 (A) (A) (A) (A) (A) (A) (A) (A) (A) (A) (A) (A)
                 (A) (A) (A) (A) (A) (A) (A) (A) (A) (A) (A) (A)
                 (A) (A) (A) (A) (A) (A) (A) (A) (A) (A) (A) (A)
                 (A) (A) (A) (A) (A) (A) (A) (A) (A) (A) (A) (A)
                 (A) (A) (A) (A) (A) (A) (A) (A) (A) (A) (A) (A)
                 (A) (A) (A) (A) (A) (A) (A) (A) (A) (A) (A) (A)
                 (A) (A) (A) (A) (A) (A) (A) (A) (A) (A) (A) (A)
                 (A) (A) (A) (A) (A) (A) (A) (A) (A) (A) (A) (A)
                 (A) (A) (A) (A) (A) (A) (A) (A) (A) (A) (A) (A)
                 (A) (A) (A) (A) (A) (A) (A) (A) (A) (A) (A) (A)
                 (A) (A) (A) (A) (A) (A) (A) (A) (A) (A) (A) (A)
                 (A) (A) (A) (A) (A) (A) (A) (A) (A) (A) (A) (A)
                 (A) (A) (A) (A) (A) (A) (A) (A) (A) (A) (A) (A)
                 (A) (A) (A) (A) (A) (A) (A) (A) (A) (A) (A) (A)
                 (A) (A) (A) (A) (A) (A) (A) (A) (A) (A) (A) (A)
                 (A) (A) (A) (A) (A) (A) (A) (A) (A) (A) (A) (A)
                 (A) (A) (A) (A) (A) (A) (A) (A) (A) (A) (A) (A)
                 (A) (A) (A) (A) (A) (A) (A) (A) (A) (A) (A) (A)
                 (A) (A) (A) (A) (A) (A) (A) (A) (A) (A) (A) (A)
                 (A) (A) (A) (A) (A) (A) (A) (A) (A) (A) (A) (A)
                 (A) (A) (A) (A) (A) (A) (A) (A) (A) (A) (A) (A)
                 (A) (A) (A) (A) (A) (A) (A) (A) (A) (A) (A) (A)
                 (A) (A) (A) (A) (A) (A) (A) (A) (A) (A) (A) (A)
                 (A) (A) (A) (A) (A) (A) (A) (A) (A) (A) (A) (A)
                 (A) (A) (A) (A) (A) (A) (A) (A) (A) (A) (A) (A)
                 (A) (A) (A) (A) (A) (A) (A) (A) (A) (A) (A) (A)
                 (A) (A) (A) (A) (A) (A) (A) (A) (A) (A) (A) (A)
                 (A) (A) (A) (A) (A) (A) (A) (A) (A) (A) (A) (A)
                 (A) (A) (A) (A) (A) (A) (A) (A) (A) (A) (A) (A)
                 (A) (A) (A) (A) (A) (A) (A) (A) (A) (A) (A) (A)
                 (A) (A) (A) (A) (A) (A) (A) (A) (A) (A) (A) (A)
                 (A) (A) (A)
 Generating guess from densities on rwf.
 Convergence on wavefunction:    0.000001000000000
 Davidson Disk Diagonalization:  ConvIn= 1.00D-06 SkipCon=T Conv= 1.00D-06.
 Max sub-space:  2000 roots to seek:     4 dimension of matrix:       200448
 Iteration     1 Dimension     4 NMult     0 NNew      4
 CISAX will form     4 AO SS matrices at one time.
 NMat=     4 NSing=     0 JSym2X= 0.
 FoFJK:  IHMeth= 1 ICntrl=       0 DoSepK=T KAlg= 0 I1Cent=           0 FoldK=F
 IRaf=         1 NMat=       8 IRICut=       1 DoRegI=T DoRafI=F ISym2E= 0 IDoP0=0 IntGTp=1.
 FoFCou: FMM=T IPFlag=           0 FMFlag=      100000 FMFlg1=        2001
         NFxFlg=           0 DoJE=F BraDBF=F KetDBF=F FulRan=T
         wScrn=  0.000000 ICntrl=         0 IOpCl=  0 I1Cent=           0 NGrid=           0
         NMat0=    8 NMatS0=      0 NMatT0=    4 NMatD0=    8 NMtDS0=    0 NMtDT0=    0
         CW=    0.222036    0.777964
         WU=    0.000000   35.013393
 Symmetry not used in FoFCou.
 FMM levels:  10  Number of levels for PrismC:   7
 Excitation Energies [eV] at current iteration:
 Root      1 :     2.428465776638530
 Root      2 :     2.958416646592573
 Root      3 :     3.094504608324905
 Root      4 :     3.393433795043618
 Iteration     2 Dimension     8 NMult     4 NNew      4
 CISAX will form     4 AO SS matrices at one time.
 NMat=     4 NSing=     0 JSym2X= 0.
 Root      1 not converged, maximum delta is    0.012605092120728
 Root      2 not converged, maximum delta is    0.012855075698279
 Root      3 not converged, maximum delta is    0.015122812177263
 Root      4 not converged, maximum delta is    0.006192433842845
 Excitation Energies [eV] at current iteration:
 Root      1 :     2.402407532960406   Change is   -0.026058243678123
 Root      2 :     2.935068194693580   Change is   -0.023348451898993
 Root      3 :     3.060573202730022   Change is   -0.033931405594884
 Root      4 :     3.383792717324364   Change is   -0.009641077719255
 Iteration     3 Dimension    12 NMult     8 NNew      4
 CISAX will form     4 AO SS matrices at one time.
 NMat=     4 NSing=     0 JSym2X= 0.
 Root      1 not converged, maximum delta is    0.002331764599777
 Root      2 not converged, maximum delta is    0.001983181015397
 Root      3 not converged, maximum delta is    0.003714656852930
 Root      4 not converged, maximum delta is    0.005612965867623
 Excitation Energies [eV] at current iteration:
 Root      1 :     2.401764393781945   Change is   -0.000643139178461
 Root      2 :     2.934518234195044   Change is   -0.000549960498535
 Root      3 :     3.059807977993709   Change is   -0.000765224736313
 Root      4 :     3.382761691267147   Change is   -0.001031026057216
 Iteration     4 Dimension    16 NMult    12 NNew      4
 CISAX will form     4 AO SS matrices at one time.
 NMat=     4 NSing=     0 JSym2X= 0.
 Root      1 not converged, maximum delta is    0.000860064029313
 Root      2 not converged, maximum delta is    0.001435375116352
 Root      3 not converged, maximum delta is    0.003742745557899
 Root      4 not converged, maximum delta is    0.014972241983441
 Excitation Energies [eV] at current iteration:
 Root      1 :     2.401712559101129   Change is   -0.000051834680817
 Root      2 :     2.934445239871508   Change is   -0.000072994323537
 Root      3 :     3.059604650163026   Change is   -0.000203327830682
 Root      4 :     3.381273779545493   Change is   -0.001487911721654
 Iteration     5 Dimension    20 NMult    16 NNew      4
 CISAX will form     4 AO SS matrices at one time.
 NMat=     4 NSing=     0 JSym2X= 0.
 Root      1 not converged, maximum delta is    0.000538302553563
 Root      2 not converged, maximum delta is    0.001223812376769
 Root      3 not converged, maximum delta is    0.002406719314402
 Root      4 not converged, maximum delta is    0.006561617528839
 Excitation Energies [eV] at current iteration:
 Root      1 :     2.401705182628530   Change is   -0.000007376472599
 Root      2 :     2.934426649140529   Change is   -0.000018590730979
 Root      3 :     3.059540476090686   Change is   -0.000064174072340
 Root      4 :     3.380737595816312   Change is   -0.000536183729181
 Iteration     6 Dimension    24 NMult    20 NNew      4
 CISAX will form     4 AO SS matrices at one time.
 NMat=     4 NSing=     0 JSym2X= 0.
[...]
 Alpha virt. eigenvalues --    0.79026   0.80070   0.80964   0.81605   0.82174
 Alpha virt. eigenvalues --    0.83463   0.83698   0.83973   0.84087   0.84659
 Alpha virt. eigenvalues --    0.85361   0.86003   0.86180   0.86524   0.86689
 Alpha virt. eigenvalues --    0.86759   0.86895   0.87138   0.87446   0.87648
 Alpha virt. eigenvalues --    0.87889   0.88240   0.88375   0.89006   0.89252
 Alpha virt. eigenvalues --    0.89317   0.89783   0.89897   0.90104   0.90356
 Alpha virt. eigenvalues --    0.90463   0.90637   0.90913   0.91256   0.91500
 Alpha virt. eigenvalues --    0.91540   0.91784   0.91991   0.92164   0.92717
 Alpha virt. eigenvalues --    0.93155   0.93631   0.94091   0.94151   0.94490
 Alpha virt. eigenvalues --    0.94794   0.95042   0.95213   0.95595   0.95895
 Alpha virt. eigenvalues --    0.96175   0.96567   0.96866   0.96923   0.97470
 Alpha virt. eigenvalues --    0.97674   0.98256   0.98819   0.99534   0.99912
 Alpha virt. eigenvalues --    1.00312   1.01194   1.01302   1.01976   1.02386
 Alpha virt. eigenvalues --    1.02497   1.02895   1.03676   1.04411   1.04742
 Alpha virt. eigenvalues --    1.05152   1.05274   1.05547   1.05863   1.06086
 Alpha virt. eigenvalues --    1.06596   1.07006   1.07351   1.07772   1.08022
 Alpha virt. eigenvalues --    1.08675   1.09153   1.09643   1.09995   1.10412
 Alpha virt. eigenvalues --    1.10915   1.11763   1.12279   1.12710   1.13479
 Alpha virt. eigenvalues --    1.14105   1.14310   1.14885   1.15041   1.15689
 Alpha virt. eigenvalues --    1.15972   1.16817   1.17153   1.18280   1.18878
 Alpha virt. eigenvalues --    1.19443   1.19990   1.20763   1.20892   1.21147
 Alpha virt. eigenvalues --    1.21692   1.22130   1.22764   1.23292   1.23535
 Alpha virt. eigenvalues --    1.24120   1.24213   1.24741   1.24843   1.25209
 Alpha virt. eigenvalues --    1.25469   1.25945   1.26023   1.26337   1.26997
 Alpha virt. eigenvalues --    1.27592   1.27887   1.28164   1.29217   1.29526
 Alpha virt. eigenvalues --    1.29847   1.30158   1.30727   1.31134   1.31963
 Alpha virt. eigenvalues --    1.32552   1.33012   1.33629   1.33801   1.34473
 Alpha virt. eigenvalues --    1.35214   1.35716   1.36241   1.36497   1.37189
 Alpha virt. eigenvalues --    1.37384   1.38543   1.39380   1.39811   1.40899
 Alpha virt. eigenvalues --    1.41454   1.41671   1.41831   1.41900   1.41975
 Alpha virt. eigenvalues --    1.42171   1.42349   1.42963   1.43165   1.43366
 Alpha virt. eigenvalues --    1.43549   1.44082   1.44439   1.44543   1.45396
 Alpha virt. eigenvalues --    1.45521   1.45780   1.45870   1.46182   1.46389
 Alpha virt. eigenvalues --    1.46574   1.46616   1.46920   1.47003   1.47260
 Alpha virt. eigenvalues --    1.47350   1.47586   1.47801   1.48483   1.48684
 Alpha virt. eigenvalues --    1.48802   1.49339   1.49736   1.50714   1.51127
 Alpha virt. eigenvalues --    1.52416   1.52935   1.53415   1.54023   1.56856
 Alpha virt. eigenvalues --    1.57895   1.60109   1.61709   1.62781   1.63773
 Alpha virt. eigenvalues --    1.65298   1.65357   1.65512   1.65779   1.67438
 Alpha virt. eigenvalues --    1.68076   1.68435   1.68970   1.70884   1.72030
 Alpha virt. eigenvalues --    1.73435   1.74168   1.76269   1.77388   1.78679
 Alpha virt. eigenvalues --    1.79463   1.80211   1.80526   1.80909   1.81219
 Alpha virt. eigenvalues --    1.81547   1.81749   1.82021   1.82722   1.82798
 Alpha virt. eigenvalues --    1.83263   1.83998   1.84451   1.84610   1.85306
 Alpha virt. eigenvalues --    1.85480   1.85556   1.86206   1.86340   1.86849
 Alpha virt. eigenvalues --    1.87637   1.88028   1.88225   1.88502   1.89196
 Alpha virt. eigenvalues --    1.89489   1.89632   1.90306   1.91276   1.91429
 Alpha virt. eigenvalues --    1.92052   1.92708   1.93416   1.94006   1.94494
 Alpha virt. eigenvalues --    1.94744   1.95212   1.95701   1.95808   1.96026
 Alpha virt. eigenvalues --    1.96469   1.96777   1.96997   1.97714   1.97873
 Alpha virt. eigenvalues --    1.97934   1.98300   1.98541   1.98654   1.99068
 Alpha virt. eigenvalues --    1.99317   1.99633   1.99685   2.00243   2.00610
 Alpha virt. eigenvalues --    2.01003   2.01156   2.01845   2.02181   2.02322
 Alpha virt. eigenvalues --    2.02636   2.02941   2.03181   2.03383   2.03700
 Alpha virt. eigenvalues --    2.03873   2.03998   2.04469   2.04618   2.05076
 Alpha virt. eigenvalues --    2.05324   2.05621   2.05983   2.06130   2.06209
 Alpha virt. eigenvalues --    2.06372   2.07216   2.07391   2.07766   2.07802
 Alpha virt. eigenvalues --    2.08510   2.08847   2.09023   2.09264   2.10081
 Alpha virt. eigenvalues --    2.10832   2.11279   2.11581   2.12186   2.13480
 Alpha virt. eigenvalues --    2.14068   2.14591   2.14727   2.15795   2.16220
 Alpha virt. eigenvalues --    2.16691   2.17531   2.17804   2.18760   2.19448
 Alpha virt. eigenvalues --    2.19704   2.20225   2.21799   2.22005   2.22926
 Alpha virt. eigenvalues --    2.24025   2.25078   2.25538   2.26686   2.26887
 Alpha virt. eigenvalues --    2.27381   2.28242   2.28501   2.28961   2.29259
 Alpha virt. eigenvalues --    2.30122   2.30462   2.31127   2.31981   2.32126
 Alpha virt. eigenvalues --    2.32241   2.32828   2.33322   2.34308   2.34707
 Alpha virt. eigenvalues --    2.35034   2.35436   2.36120   2.36435   2.37394
 Alpha virt. eigenvalues --    2.38805   2.39113   2.39304   2.39861   2.40240
 Alpha virt. eigenvalues --    2.40361   2.40502   2.40713   2.40882   2.41529
 Alpha virt. eigenvalues --    2.41801   2.42111   2.43503   2.43612   2.43637
 Alpha virt. eigenvalues --    2.43715   2.44481   2.44610   2.44878   2.45043
 Alpha virt. eigenvalues --    2.45164   2.45271   2.45365   2.45756   2.45899
 Alpha virt. eigenvalues --    2.46191   2.46378   2.46484   2.47984   2.48784
 Alpha virt. eigenvalues --    2.49391   2.50011   2.50157   2.50238   2.50462
 Alpha virt. eigenvalues --    2.50588   2.50839   2.51312   2.51572   2.52422
 Alpha virt. eigenvalues --    2.52908   2.53246   2.53403   2.53744   2.54135
 Alpha virt. eigenvalues --    2.54570   2.54947   2.55484   2.56205   2.56402
 Alpha virt. eigenvalues --    2.56604   2.57126   2.57366   2.57744   2.57954
 Alpha virt. eigenvalues --    2.58563   2.58893   2.59285   2.59515   2.60048
 Alpha virt. eigenvalues --    2.60906   2.61299   2.61691   2.61862   2.61989
 Alpha virt. eigenvalues --    2.62563   2.62975   2.63241   2.63612   2.63744
 Alpha virt. eigenvalues --    2.63909   2.64123   2.64636   2.64892   2.65609
 Alpha virt. eigenvalues --    2.65943   2.66341   2.66724   2.67181   2.67750
 Alpha virt. eigenvalues --    2.68140   2.68351   2.68854   2.69032   2.69440
 Alpha virt. eigenvalues --    2.70370   2.71265   2.72360   2.72552   2.73589
 Alpha virt. eigenvalues --    2.74003   2.74524   2.75117   2.75176   2.75776
 Alpha virt. eigenvalues --    2.76284   2.77089   2.77538   2.78001   2.78941
 Alpha virt. eigenvalues --    2.79759   2.80218   2.80351   2.81038   2.81099
 Alpha virt. eigenvalues --    2.81352   2.82028   2.82714   2.82876   2.83280
 Alpha virt. eigenvalues --    2.83673   2.84466   2.84638   2.87012   2.87804
 Alpha virt. eigenvalues --    2.89626   2.90415   2.91262   2.92222   2.92718
 Alpha virt. eigenvalues --    2.94194   2.96605   2.96864   2.97557   2.97987
 Alpha virt. eigenvalues --    2.98148   2.98251   2.99141   2.99412   3.00034
 Alpha virt. eigenvalues --    3.00598   3.01166   3.01896   3.03576   3.04273
 Alpha virt. eigenvalues --    3.06073   3.07712   3.10048   3.14597   3.16396
 Alpha virt. eigenvalues --    3.16666   3.18815   3.20800   3.21539   3.22481
 Alpha virt. eigenvalues --    3.23777   3.24654   3.25638   3.26188   3.27969
 Alpha virt. eigenvalues --    3.28451   3.29322   3.29637   3.30232   3.30931
 Alpha virt. eigenvalues --    3.31148   3.31472   3.31773   3.31794   3.32160
 Alpha virt. eigenvalues --    3.32348   3.32861   3.34271   3.35559   3.37574
 Alpha virt. eigenvalues --    3.37799   3.37968   3.38575   3.41975   3.43535
 Alpha virt. eigenvalues --    3.43763   3.44072   3.44726   3.44928   3.45248
 Alpha virt. eigenvalues --    3.46596   3.49865   3.50129   3.51481   3.53713
 Alpha virt. eigenvalues --    3.54019   3.55096   3.55949   3.57705   3.58007
 Alpha virt. eigenvalues --    3.59085   3.66098   3.88575   3.88602   3.89025
 Alpha virt. eigenvalues --    3.89546   3.95183   3.96647   3.96888   3.97564
 Alpha virt. eigenvalues --    4.13178   4.16958   4.18084   4.18612   4.18963
 Alpha virt. eigenvalues --    4.19390   4.20617   4.21150   4.21537   4.21966
 Alpha virt. eigenvalues --    4.22240   4.22391   4.22961   4.24931   4.25407
 Alpha virt. eigenvalues --    4.25618   4.26498   4.27640   4.28006   4.28490
 Alpha virt. eigenvalues --    4.29072   4.29868   4.30085   4.32848   4.33793
 Alpha virt. eigenvalues --    4.34702   4.43349   4.46210   4.46792   4.48086
 Alpha virt. eigenvalues --    4.48634   4.51009   4.51573   4.52602   4.53428
 Alpha virt. eigenvalues --    4.55658   4.58392   4.59670   4.60115   4.60193
 Alpha virt. eigenvalues --    4.60486   4.61555   4.62778   4.63385   4.64394
 Alpha virt. eigenvalues --    4.84775   4.88283   4.91291   4.92271   4.95288
 Alpha virt. eigenvalues --    5.00215   5.00617   5.02797
          Condensed to atoms (all electrons):
 Mulliken charges:
               1
     1  C    0.316864
     2  C    0.298104
     3  C   -0.125363
     4  C    0.033434
     5  C   -0.132002
     6  C    0.037977
     7  C   -0.149860
     8  H    0.122745
     9  C   -0.168982
    10  C   -0.144408
    11  H    0.125719
    12  C   -0.173701
    13  C   -0.151327
    14  H    0.135583
    15  H    0.135555
    16  C   -0.150092
    17  H    0.137149
    18  H    0.138512
    19  C    0.181435
    20  C    0.207498
    21  C   -0.111183
    22  C   -0.227938
    23  C   -0.124796
    24  C    0.215284
    25  N   -0.697759
    26  S    1.183803
    27  O   -0.570753
    28  O   -0.571023
    29  H    0.127686
    30  H    0.131444
    31  H    0.196132
    32  H    0.203452
    33  C   -0.134544
    34  C   -0.115893
    35  C   -0.196279
    36  C   -0.118499
    37  C   -0.136939
    38  C   -0.124369
    39  H    0.154140
    40  H    0.178962
    41  H    0.180168
    42  H    0.154526
    43  H    0.151493
    44  C   -0.154387
    45  C   -0.146917
    46  C   -0.168749
    47  C    0.287952
    48  C    0.033710
    49  C   -0.166492
    50  H    0.131321
    51  H    0.131830
    52  H    0.140219
    53  H    0.139385
    54  C    0.305011
    55  C   -0.133362
    56  C   -0.145469
    57  C   -0.150872
    58  C   -0.162634
    59  C    0.028104
    60  H    0.135950
    61  H    0.138134
    62  H    0.130386
    63  H    0.135110
    64  N   -0.734080
    65  C   -0.151726
    66  C   -0.147125
    67  C   -0.157077
    68  C    0.312652
    69  C    0.023995
    70  C   -0.166699
    71  H    0.132571
    72  H    0.138123
    73  H    0.142444
    74  H    0.138870
    75  C    0.302144
    76  C   -0.124962
    77  C   -0.141691
    78  C   -0.149577
    79  C   -0.169061
    80  C    0.027717
    81  H    0.125933
    82  H    0.136706
    83  H    0.132378
    84  H    0.137977
    85  N   -0.739696
 Sum of Mulliken charges =  -0.00000
 Mulliken charges with hydrogens summed into heavy atoms:
               1
     1  C    0.316864
     2  C    0.298104
     3  C   -0.002619
     4  C    0.033434
     5  C   -0.006283
     6  C    0.037977
     7  C   -0.014277
     9  C   -0.033427
    10  C   -0.007259
    12  C   -0.035188
    13  C   -0.023641
    16  C   -0.018648
    19  C    0.181435
    20  C    0.207498
    21  C    0.084949
    22  C   -0.227938
    23  C    0.078656
    24  C    0.215284
    25  N   -0.697759
    26  S    1.183803
    27  O   -0.570753
    28  O   -0.571023
    33  C    0.019596
    34  C    0.063069
    35  C   -0.196279
    36  C    0.061669
    37  C    0.017587
    38  C    0.027124
    44  C   -0.023066
    45  C   -0.015087
    46  C   -0.028530
    47  C    0.287952
    48  C    0.033710
    49  C   -0.027107
    54  C    0.305011
    55  C    0.002588
    56  C   -0.007335
    57  C   -0.020485
    58  C   -0.027525
    59  C    0.028104
    64  N   -0.734080
    65  C   -0.019155
    66  C   -0.009003
    67  C   -0.014633
    68  C    0.312652
    69  C    0.023995
    70  C   -0.027830
    75  C    0.302144
    76  C    0.000971
    77  C   -0.004986
    78  C   -0.017199
    79  C   -0.031085
    80  C    0.027717
    85  N   -0.739696
 Electronic spatial extent (au):  <R**2>=          28649.9933
 Charge=             -0.0000 electrons
 Dipole moment (field-independent basis, Debye):
    X=              0.8191    Y=              1.5600    Z=              4.4652  Tot=              4.8002
 Quadrupole moment (field-independent basis, Debye-Ang):
   XX=           -290.3467   YY=           -302.8184   ZZ=           -305.8962
   XY=            -10.6947   XZ=            -29.3808   YZ=             -1.5908
 Traceless Quadrupole moment (field-independent basis, Debye-Ang):
   XX=              9.3404   YY=             -3.1313   ZZ=             -6.2091
   XY=            -10.6947   XZ=            -29.3808   YZ=             -1.5908
 Octapole moment (field-independent basis, Debye-Ang**2):
  XXX=            -13.9767  YYY=             66.3965  ZZZ=             41.8421  XYY=             69.3110
  XXY=             21.6707  XXZ=            134.9709  XZZ=             42.7932  YZZ=              4.8719
  YYZ=             32.0122  XYZ=             39.7426
 Hexadecapole moment (field-independent basis, Debye-Ang**3):
 XXXX=         -16446.8475 YYYY=         -14809.3062 ZZZZ=          -6112.1093 XXXY=           -183.6041
 XXXZ=           -687.7487 YYYX=           -171.9975 YYYZ=            165.8651 ZZZX=           -181.4823
 ZZZY=             90.1537 XXYY=          -5325.0115 XXZZ=          -3766.9642 YYZZ=          -3529.1872
 XXYZ=           -241.6180 YYXZ=           -260.5265 ZZXY=            -64.5013
 N-N= 7.522577650350D+03 E-N=-2.100430446621D+04  KE= 2.538851264514D+03
 No NMR shielding tensors so no spin-rotation constants.
 Leave Link  601 at Sat Nov  2 04:55:48 2024, MaxMem=  2147483648 cpu:               7.3 elap:               0.6
 (Enter /apps/gaussian/g16/l9999.exe)
 Electronic transition elements 
                 1             2             3             4 
      1  -0.256014D+04 -0.256013D+04 -0.256012D+04 -0.256011D+04
      2   0.000000D+00  0.000000D+00  0.000000D+00  0.000000D+00
      3   0.000000D+00  0.000000D+00  0.000000D+00  0.000000D+00
      4   0.000000D+00  0.000000D+00  0.000000D+00  0.000000D+00
      5   0.000000D+00  0.000000D+00  0.000000D+00  0.000000D+00
      6   0.000000D+00  0.000000D+00  0.000000D+00  0.000000D+00
      7   0.000000D+00  0.000000D+00  0.000000D+00  0.000000D+00
      8   0.000000D+00  0.000000D+00  0.000000D+00  0.000000D+00
      9   0.000000D+00  0.000000D+00  0.000000D+00  0.000000D+00
     10   0.000000D+00  0.000000D+00  0.000000D+00  0.000000D+00
     11   0.000000D+00  0.000000D+00  0.000000D+00  0.000000D+00
     12   0.000000D+00  0.000000D+00  0.000000D+00  0.000000D+00
     13   0.000000D+00  0.000000D+00  0.000000D+00  0.000000D+00
     14   0.000000D+00  0.000000D+00  0.000000D+00  0.000000D+00
     15   0.000000D+00  0.000000D+00  0.000000D+00  0.000000D+00
     16   0.000000D+00  0.000000D+00  0.000000D+00  0.000000D+00

 Test job not archived.
 1\1\GINC-PMLP-HPCCLSAP03\FOpt\RwB97XD TDA-FC\6-31G(d,p)\C48H31N3O2S1\W
 ILLIAM1\02-Nov-2024\0\\#p opt wB97XD/6-31G** iop(3/107=0119500000,3/10
 8=0119500000) TDA=(triplets, nstates=4, root=1)\\Tuning input file gen
 erated by xtune with parameters: w01195\\0,1\C,1.5389219746,1.78530394
 86,0.8219039878\C,2.4373540022,0.559695601,-0.8533932435\C,0.705684567
 5,2.2967470881,1.8181251618\C,2.8543454486,2.266834065,0.624448744\C,2
 .6124875361,-0.2910391004,-1.9425477055\C,3.4323708289,1.4740083173,-0
 .4482146219\C,1.1988707939,3.3407287726,2.5940107741\H,-0.2948260887,1
 .9120887743,1.9676698488\C,3.332749912,3.2995091207,1.4219632137\C,3.8
 504790311,-0.2663098732,-2.5835722953\H,1.8130545867,-0.9351557684,-2.
 287221202\C,4.6557985845,1.4929991688,-1.1096711196\C,2.493322345,3.83
 92593445,2.3994985654\H,0.5649048775,3.773684951,3.3593155078\H,4.3403
 456388,3.678966101,1.2914275299\C,4.8626037416,0.6066403725,-2.1697655
 865\H,4.0231829591,-0.9307419497,-3.422571701\H,5.4322471921,2.1919447
 18,-0.8176845411\C,0.1045694179,-0.0107868632,-0.1424333924\C,-1.09427
 03915,0.5780365498,-0.7383838984\C,-2.015582374,-0.2118644291,-1.35477
 09653\C,-1.8581583121,-1.6410795594,-1.3920918805\C,-0.7449199828,-2.2
 522373019,-0.7689694566\C,0.2170058602,-1.4715523127,-0.1791747335\N,1
 .2939628556,0.7370088653,-0.0592029452\S,-3.1944941697,-2.6347027811,-
 1.9391401455\O,-3.8782604603,-1.9229414521,-3.0243056835\O,-2.69396067
 2,-4.0034259746,-2.1146940037\H,2.8513367288,4.6523402836,3.0214524535
 \H,5.8132257147,0.608327034,-2.6915069452\H,-2.8775531667,0.2460229039
 ,-1.8261212008\H,-0.6860981125,-3.3330234134,-0.7211089333\C,-4.997995
 5296,-3.5899069814,1.5690375651\C,-4.1741026262,-3.6299820095,0.446824
 4187\C,-4.3197920237,-2.6517000156,-0.5377821873\C,-5.2760288079,-1.64
 16102773,-0.4191196286\C,-6.0917734148,-1.6093262958,0.7100575778\C,-5
 .9510586275,-2.578758415,1.7039002452\H,-4.8995634052,-4.3506274802,2.
 336146983\H,-3.4376572487,-4.4149243773,0.3184068388\H,-5.3876721967,-
 0.911133295,-1.2120762676\H,-6.8420953312,-0.8321169756,0.8088530391\H
 ,-6.589926382,-2.5514494616,2.5804283094\C,-3.5721647104,4.2719422369,
 1.9275719209\C,-3.7456649044,2.8792998134,1.9860058519\C,-3.0358552908
 ,2.0242570817,1.1482297926\C,-2.1414992127,2.6047239642,0.2473972607\C
 ,-1.9481655233,4.0039185193,0.1751763688\C,-2.6784527369,4.8395110996,
 1.0253732952\H,-4.1448999563,4.9099744955,2.5920675885\H,-4.451096005,
 2.4586670533,2.6952482679\H,-3.1761487489,0.9494718673,1.1830366691\H,
 -2.5469295297,5.9159329741,0.9835645154\C,-0.5725708768,2.9618029156,-
 1.3399386563\C,0.3711913887,2.8121926073,-2.3561830718\C,0.9667919038,
 3.9655900543,-2.8532485421\C,0.6224134435,5.2364057884,-2.3635688948\C
 ,-0.3340318615,5.3771560825,-1.36486455\C,-0.942534316,4.2319734127,-0
 .8421308156\H,0.629692529,1.8332700127,-2.7430073668\H,1.7096791527,3.
 8788816258,-3.6391093786\H,1.1046492117,6.1162645757,-2.7756998647\H,-
 0.6048193043,6.3608309591,-0.9951432353\N,-1.3003421403,1.9805098362,-
 0.6701634545\C,4.2853936974,-4.6528858065,-0.8435106417\C,3.2029603597
 ,-4.441981888,-1.7086015295\C,2.1516711082,-3.5983540925,-1.361432231\
 C,2.2120258681,-2.9715720421,-0.1143379459\C,3.3011914973,-3.169831570
 9,0.7666819132\C,4.3427437769,-4.0169523938,0.395316163\H,5.0871585994
 ,-5.3187894373,-1.1431528907\H,3.1769862918,-4.9482126805,-2.667274673
 1\H,1.3152905787,-3.4452507266,-2.0323605961\H,5.1875861085,-4.1741743
 868,1.0572197682\C,1.8218804182,-1.6945274145,1.7196098474\C,1.2245838
 412,-0.8994532212,2.696183188\C,1.9226970045,-0.7123949743,3.887006505
 8\C,3.1603369596,-1.329468929,4.1090263346\C,3.7241525419,-2.164350546
 8,3.1450244673\C,3.0482374043,-2.3546295105,1.9410957685\H,0.252202140
 1,-0.4520823462,2.5326425214\H,1.4912562865,-0.0826876288,4.6570332822
 \H,3.6768518369,-1.1692251644,5.0489460503\H,4.6685069154,-2.664006729
 8,3.3328560682\N,1.3327749799,-2.0462121015,0.4537834495\\Version=ES64
 L-G16RevC.01\State=1-A\HF=-2560.2340732\RMSD=7.407e-09\RMSF=1.625e-06\
 Dipole=2.5837005,1.0089067,2.4135704\PG=C01 [X(C48H31N3O2S1)]\\@


 WE THE UNWILLING
 LED BY THE UNQUALIFIED
 HAVE BEEN DOING THE UNBELIEVABLE SO LONG WITH SO LITTLE
 THAT WE NOW ATTEMPT THE IMPOSSIBLE WITH NOTHING.

                                    -- ANONYMOUS
 Job cpu time:      11 days 22 hours 27 minutes 52.1 seconds.
 Elapsed time:       1 days  5 hours  9 minutes 30.7 seconds.
 File lengths (MBytes):  RWF=   4566 Int=      0 D2E=      0 Chk=    215 Scr=      1
 Normal termination of Gaussian 16 at Sat Nov  2 04:55:50 2024.
