 Entering Gaussian System, Link 0=g16
 Initial command:
 /apps/gaussian/g16/l1.exe "/local/Gau-97187.inp" -scrdir="/local/"
 Entering Link 1 = /apps/gaussian/g16/l1.exe PID=     97188.
  
 Copyright (c) 1988-2019, Gaussian, Inc.  All Rights Reserved.
  
 This is part of the Gaussian(R) 16 program.  It is based on
 the Gaussian(R) 09 system (copyright 2009, Gaussian, Inc.),
 the Gaussian(R) 03 system (copyright 2003, Gaussian, Inc.),
 the Gaussian(R) 98 system (copyright 1998, Gaussian, Inc.),
 the Gaussian(R) 94 system (copyright 1995, Gaussian, Inc.),
 the Gaussian 92(TM) system (copyright 1992, Gaussian, Inc.),
 the Gaussian 90(TM) system (copyright 1990, Gaussian, Inc.),
 the Gaussian 88(TM) system (copyright 1988, Gaussian, Inc.),
 the Gaussian 86(TM) system (copyright 1986, Carnegie Mellon
 University), and the Gaussian 82(TM) system (copyright 1983,
 Carnegie Mellon University). Gaussian is a federally registered
 trademark of Gaussian, Inc.
  
 This software contains proprietary and confidential information,
 including trade secrets, belonging to Gaussian, Inc.
  
 This software is provided under written license and may be
 used, copied, transmitted, or stored only in accord with that
 written license.
  
 The following legend is applicable only to US Government
 contracts under FAR:
  
                    RESTRICTED RIGHTS LEGEND
  
 Use, reproduction and disclosure by the US Government is
 subject to restrictions as set forth in subparagraphs (a)
 and (c) of the Commercial Computer Software - Restricted
 Rights clause in FAR 52.227-19.
  
 Gaussian, Inc.
 340 Quinnipiac St., Bldg. 40, Wallingford CT 06492
  
  
 ---------------------------------------------------------------
 Warning -- This program may not be used in any manner that
 competes with the business of Gaussian, Inc. or will provide
 assistance to any competitor of Gaussian, Inc.  The licensee
 of this program is prohibited from giving any competitor of
 Gaussian, Inc. access to this program.  By using this program,
 the user acknowledges that Gaussian, Inc. is engaged in the
 business of creating and licensing software in the field of
 computational chemistry and represents and warrants to the
 licensee that it is not a competitor of Gaussian, Inc. and that
 it will not use this program in any manner prohibited above.
 ---------------------------------------------------------------
  

 Cite this work as:
 Gaussian 16, Revision C.01,
 M. J. Frisch, G. W. Trucks, H. B. Schlegel, G. E. Scuseria, 
 M. A. Robb, J. R. Cheeseman, G. Scalmani, V. Barone, 
 G. A. Petersson, H. Nakatsuji, X. Li, M. Caricato, A. V. Marenich, 
 J. Bloino, B. G. Janesko, R. Gomperts, B. Mennucci, H. P. Hratchian, 
 J. V. Ortiz, A. F. Izmaylov, J. L. Sonnenberg, D. Williams-Young, 
 F. Ding, F. Lipparini, F. Egidi, J. Goings, B. Peng, A. Petrone, 
 T. Henderson, D. Ranasinghe, V. G. Zakrzewski, J. Gao, N. Rega, 
 G. Zheng, W. Liang, M. Hada, M. Ehara, K. Toyota, R. Fukuda, 
 J. Hasegawa, M. Ishida, T. Nakajima, Y. Honda, O. Kitao, H. Nakai, 
 T. Vreven, K. Throssell, J. A. Montgomery, Jr., J. E. Peralta, 
 F. Ogliaro, M. J. Bearpark, J. J. Heyd, E. N. Brothers, K. N. Kudin, 
 V. N. Staroverov, T. A. Keith, R. Kobayashi, J. Normand, 
 K. Raghavachari, A. P. Rendell, J. C. Burant, S. S. Iyengar, 
 J. Tomasi, M. Cossi, J. M. Millam, M. Klene, C. Adamo, R. Cammi, 
 J. W. Ochterski, R. L. Martin, K. Morokuma, O. Farkas, 
 J. B. Foresman, and D. J. Fox, Gaussian, Inc., Wallingford CT, 2019.
 
 ******************************************
 Gaussian 16:  ES64L-G16RevC.01  3-Jul-2019
                17-Aug-2024 
 ******************************************
 %chk=YZ-VIII-195.chk
 %nprocshared=16
 Will use up to   16 processors via shared memory.
 %mem=16GB
 ----------------------------------------------------------------------
 #p opt=Restart wB97XD/6-31G** iop(3/107=0136000000,3/108=0136000000) T
 DA=(triplets, nstates=4, root=1)
 ----------------------------------------------------------------------
 1/18=20,19=15,26=3,35=1/3(2);
 2/9=110/2;
 99//99;
 2/9=110/2;
 3/5=1,6=6,7=101,11=9,25=1,30=1,71=1,74=-58,107=136000000,108=136000000/1,2,3,8;
 4/5=5,16=3,69=1/1;
 5/5=2,38=5/2;
 8/6=1,10=2,107=1,108=4/1;
 9/8=1,15=2,41=4,42=1,48=3,49=4/14;
 10/5=4,28=1/2;
 7/12=6,13=5,14=1/1,2,3,16;
 1/18=20,19=15,26=3/3(-8);
 2/9=110/2;
 6/7=2,8=2,9=2,10=2/1;
 99/9=10/99;
 Leave Link    1 at Sat Aug 17 14:40:33 2024, MaxMem=  2147483648 cpu:               0.8 elap:               0.2
 (Enter /apps/gaussian/g16/l103.exe)

 GradGradGradGradGradGradGradGradGradGradGradGradGradGradGradGradGradGrad
 Berny optimization.
 Restoring state from the checkpoint file "YZ-VIII-195.chk".
 ONIOM results not found on unit 2.
 Title:  Tuning input file generated by xtune with parameters: w01360
 Route:  #p opt wB97XD/6-31G** iop(3/107=0136000000,3/108=0136000000) TDA=(triple
 ts, nstates=4, root=1)
 FncErr=1.00D-07 GrdErr=1.00D-06 EigMax=2.50D+02 EigMin=1.00D-04
 Using GEDIIS/GDIIS optimizer.
 FormGI is forming the generalized inverse of G from B-inverse, IUseBI=4.
 Internal  Forces:  Max     0.014464781 RMS     0.000957247
 Search for a local minimum.
 Step number  43 out of a maximum of  390
 All quantities printed in internal units (Hartrees-Bohrs-Radians)
 RMS Force = .95725D-03 SwitMx=.10000D-02 MixMth= 2
 Mixed Optimization -- En-DIIS/RFO-DIIS
 Update second derivatives using D2CorX and points    7    8    9   10   11
                                                     12   13   14   15   16
                                                     18   17   20   22   26
                                                     27   28   29   30   31
                                                     32   33   34   35   36
                                                     37   38   39   40   41
                                                     42   43   21
 ITU=  0  0  0  0  0  0  0  0  0  0  0  0  0  0  0  0  0  0  0  0
 ITU=  0  0  1  0 -1  0  1  1  1  1  1  1  1  1  1  1  1  1  1  1
 ITU= -1  1  0
 Use linear search instead of GDIIS.
 Skip linear search -- no minimum in search direction.
 Steepest descent instead of Quadratic search.
 Steepest descent step scaled to max of 0.05000.
 Iteration  1 RMS(Cart)=  0.02238559 RMS(Int)=  0.00003090
 Iteration  2 RMS(Cart)=  0.00010038 RMS(Int)=  0.00000079
 Iteration  3 RMS(Cart)=  0.00000000 RMS(Int)=  0.00000079
 ITry= 1 IFail=0 DXMaxC= 8.97D-02 DCOld= 1.00D+10 DXMaxT= 4.30D-01 DXLimC= 3.00D+00 Rises=T
 Variable       Old X    -DE/DX   Delta X   Delta X   Delta X     New X
                                 (Linear)    (Quad)   (Total)
    R1        2.77718   0.00087   0.00000   0.00299   0.00299   2.78017
    R2        2.75794  -0.00100   0.00000  -0.00345  -0.00345   2.75449
    R3        2.63019   0.00130   0.00000   0.00450   0.00450   2.63469
    R4        2.59174  -0.00605   0.00000  -0.02093  -0.02093   2.57082
    R5        2.65270   0.00024   0.00000   0.00084   0.00084   2.65354
    R6        2.69951  -0.00137   0.00000  -0.00474  -0.00473   2.69477
    R7        2.04850  -0.00005   0.00000  -0.00019  -0.00019   2.04831
    R8        2.73373  -0.00115   0.00000  -0.00398  -0.00397   2.72976
    R9        3.31265   0.00014   0.00000   0.00048   0.00048   3.31313
   R10        2.57601  -0.00809   0.00000  -0.02795  -0.02795   2.54806
   R11        2.04845  -0.00016   0.00000  -0.00056  -0.00056   2.04789
   R12        2.04961  -0.00017   0.00000  -0.00058  -0.00058   2.04903
   R13        2.77350  -0.00177   0.00000  -0.00610  -0.00610   2.76740
   R14        2.74762   0.01446   0.00000   0.05000   0.05000   2.79762
   R15        3.39142   0.00025   0.00000   0.00085   0.00085   3.39227
   R16        2.64714   0.00113   0.00000   0.00391   0.00391   2.65105
   R17        2.64655  -0.00038   0.00000  -0.00133  -0.00133   2.64522
   R18        2.63388   0.00057   0.00000   0.00196   0.00196   2.63584
   R19        2.66331   0.00007   0.00000   0.00023   0.00023   2.66354
   R20        2.63899  -0.00042   0.00000  -0.00144  -0.00144   2.63756
   R21        2.66918  -0.00017   0.00000  -0.00059  -0.00059   2.66859
   R22        2.62813   0.00002   0.00000   0.00008   0.00008   2.62821
   R23        2.04773  -0.00025   0.00000  -0.00085  -0.00085   2.04688
   R24        2.74093  -0.00026   0.00000  -0.00088  -0.00088   2.74004
   R25        2.63683  -0.00012   0.00000  -0.00042  -0.00042   2.63641
   R26        2.63005  -0.00054   0.00000  -0.00188  -0.00188   2.62817
   R27        2.04810  -0.00000   0.00000  -0.00000  -0.00000   2.04810
   R28        2.63617  -0.00048   0.00000  -0.00166  -0.00166   2.63451
   R29        2.65029  -0.00042   0.00000  -0.00145  -0.00145   2.64885
   R30        2.04970  -0.00002   0.00000  -0.00008  -0.00008   2.04962
   R31        2.62955  -0.00033   0.00000  -0.00115  -0.00115   2.62840
   R32        2.05057  -0.00002   0.00000  -0.00007  -0.00007   2.05050
   R33        2.64940  -0.00010   0.00000  -0.00036  -0.00036   2.64904
   R34        2.05037  -0.00002   0.00000  -0.00007  -0.00007   2.05031
   R35        2.62967  -0.00028   0.00000  -0.00097  -0.00097   2.62870
   R36        2.05052  -0.00002   0.00000  -0.00007  -0.00007   2.05045
   R37        2.04974  -0.00002   0.00000  -0.00007  -0.00007   2.04966
   R38        2.04976  -0.00001   0.00000  -0.00004  -0.00004   2.04972
   R39        2.64477  -0.00016   0.00000  -0.00054  -0.00054   2.64423
   R40        2.64989   0.00082   0.00000   0.00283   0.00283   2.65272
   R41        2.63571  -0.00019   0.00000  -0.00066  -0.00066   2.63505
   R42        2.66746   0.00002   0.00000   0.00008   0.00008   2.66755
   R43        2.63275   0.00011   0.00000   0.00039   0.00039   2.63314
   R44        2.66564   0.00010   0.00000   0.00035   0.00035   2.66599
   R45        2.63217  -0.00042   0.00000  -0.00143  -0.00143   2.63074
   R46        2.04798   0.00002   0.00000   0.00007   0.00007   2.04806
   R47        2.74843  -0.00019   0.00000  -0.00065  -0.00065   2.74778
   R48        2.62965  -0.00040   0.00000  -0.00139  -0.00139   2.62826
   R49        2.63026  -0.00007   0.00000  -0.00026  -0.00026   2.63000
   R50        2.04676  -0.00022   0.00000  -0.00075  -0.00075   2.04600
   R51        2.62922  -0.00007   0.00000  -0.00025  -0.00025   2.62897
   R52        2.64714  -0.00006   0.00000  -0.00020  -0.00020   2.64694
   R53        2.04962  -0.00001   0.00000  -0.00003  -0.00003   2.04959
   R54        2.63648  -0.00008   0.00000  -0.00026  -0.00026   2.63622
   R55        2.05009  -0.00001   0.00000  -0.00005  -0.00005   2.05004
   R56        2.64680  -0.00021   0.00000  -0.00073  -0.00073   2.64607
   R57        2.04892  -0.00002   0.00000  -0.00007  -0.00007   2.04885
   R58        2.63690  -0.00017   0.00000  -0.00059  -0.00059   2.63630
   R59        2.05022  -0.00000   0.00000  -0.00001  -0.00001   2.05021
   R60        2.04958  -0.00001   0.00000  -0.00003  -0.00003   2.04955
   R61        2.04951  -0.00001   0.00000  -0.00002  -0.00002   2.04949
   R62        2.63770   0.00024   0.00000   0.00081   0.00081   2.63851
   R63        2.63599   0.00021   0.00000   0.00074   0.00074   2.63673
   R64        2.63186   0.00018   0.00000   0.00064   0.00064   2.63250
   R65        2.04960  -0.00005   0.00000  -0.00016  -0.00016   2.04944
   R66        2.63074   0.00019   0.00000   0.00066   0.00066   2.63139
   R67        2.04894   0.00002   0.00000   0.00008   0.00008   2.04902
   R68        2.63682   0.00001   0.00000   0.00004   0.00004   2.63686
   R69        2.05050   0.00004   0.00000   0.00012   0.00012   2.05063
   R70        2.63733   0.00003   0.00000   0.00009   0.00009   2.63741
   R71        2.05009   0.00002   0.00000   0.00009   0.00009   2.05017
   R72        2.05046   0.00001   0.00000   0.00004   0.00004   2.05050
    A1        2.06836  -0.00013   0.00000  -0.00044  -0.00045   2.06791
    A2        2.10090   0.00147   0.00000   0.00509   0.00509   2.10599
    A3        2.07917  -0.00133   0.00000  -0.00461  -0.00461   2.07456
    A4        2.09564  -0.00064   0.00000  -0.00222  -0.00223   2.09341
    A5        2.07043   0.00218   0.00000   0.00755   0.00755   2.07798
    A6        2.11667  -0.00154   0.00000  -0.00533  -0.00533   2.11134
    A7        2.09238  -0.00008   0.00000  -0.00029  -0.00029   2.09210
    A8        2.10222  -0.00008   0.00000  -0.00028  -0.00028   2.10194
    A9        2.08592   0.00016   0.00000   0.00055   0.00055   2.08647
   A10        2.10825   0.00035   0.00000   0.00122   0.00123   2.10947
   A11        2.07046  -0.00007   0.00000  -0.00026  -0.00026   2.07020
   A12        2.10068  -0.00028   0.00000  -0.00097  -0.00097   2.09971
   A13        2.09121   0.00032   0.00000   0.00111   0.00111   2.09232
   A14        2.06890   0.00017   0.00000   0.00060   0.00060   2.06950
   A15        2.12268  -0.00049   0.00000  -0.00170  -0.00171   2.12098
   A16        2.09981   0.00015   0.00000   0.00053   0.00053   2.10034
   A17        2.07203   0.00016   0.00000   0.00056   0.00056   2.07260
   A18        2.10946  -0.00034   0.00000  -0.00117  -0.00116   2.10830
   A19        1.89334  -0.00019   0.00000  -0.00065  -0.00065   1.89269
   A20        1.88624   0.00042   0.00000   0.00145   0.00145   1.88769
   A21        1.79667  -0.00053   0.00000  -0.00183  -0.00183   1.79484
   A22        2.12054  -0.00008   0.00000  -0.00027  -0.00027   2.12027
   A23        1.86210  -0.00011   0.00000  -0.00039  -0.00039   1.86171
   A24        1.87834   0.00040   0.00000   0.00137   0.00137   1.87971
   A25        2.19763   0.00120   0.00000   0.00416   0.00416   2.20180
   A26        2.18629  -0.00096   0.00000  -0.00334  -0.00334   2.18295
   A27        1.88823  -0.00022   0.00000  -0.00077  -0.00077   1.88745
   A28        2.24897   0.00080   0.00000   0.00276   0.00276   2.25173
   A29        1.90505  -0.00021   0.00000  -0.00074  -0.00074   1.90431
   A30        2.12704  -0.00057   0.00000  -0.00198  -0.00198   2.12505
   A31        2.25788  -0.00031   0.00000  -0.00106  -0.00106   2.25682
   A32        1.90065   0.00022   0.00000   0.00077   0.00077   1.90142
   A33        2.12274   0.00008   0.00000   0.00028   0.00028   2.12302
   A34        2.05094   0.00012   0.00000   0.00041   0.00041   2.05135
   A35        2.11469   0.00040   0.00000   0.00137   0.00137   2.11605
   A36        2.11744  -0.00051   0.00000  -0.00176  -0.00176   2.11567
   A37        1.86360   0.00004   0.00000   0.00014   0.00014   1.86375
   A38        2.08778   0.00026   0.00000   0.00091   0.00091   2.08869
   A39        2.33124  -0.00030   0.00000  -0.00104  -0.00104   2.33020
   A40        2.05211  -0.00001   0.00000  -0.00005  -0.00005   2.05206
   A41        2.12053  -0.00001   0.00000  -0.00002  -0.00002   2.12051
   A42        2.11051   0.00002   0.00000   0.00007   0.00007   2.11058
   A43        1.86660   0.00017   0.00000   0.00059   0.00059   1.86720
   A44        2.08960  -0.00003   0.00000  -0.00010  -0.00010   2.08950
   A45        2.32681  -0.00014   0.00000  -0.00050  -0.00050   2.32631
   A46        2.11746   0.00012   0.00000   0.00041   0.00041   2.11787
   A47        2.07778  -0.00005   0.00000  -0.00016  -0.00016   2.07762
   A48        2.08785  -0.00007   0.00000  -0.00025  -0.00025   2.08761
   A49        2.07495   0.00012   0.00000   0.00040   0.00040   2.07535
   A50        2.10313  -0.00005   0.00000  -0.00018  -0.00018   2.10295
   A51        2.10510  -0.00006   0.00000  -0.00021  -0.00021   2.10488
   A52        2.11983  -0.00002   0.00000  -0.00007  -0.00007   2.11976
   A53        2.07699  -0.00001   0.00000  -0.00005  -0.00005   2.07694
   A54        2.08636   0.00003   0.00000   0.00012   0.00012   2.08647
   A55        2.07710  -0.00004   0.00000  -0.00015  -0.00015   2.07695
   A56        2.10132   0.00001   0.00000   0.00004   0.00004   2.10136
   A57        2.10474   0.00003   0.00000   0.00011   0.00011   2.10485
   A58        2.10648  -0.00004   0.00000  -0.00013  -0.00013   2.10635
   A59        2.08621   0.00001   0.00000   0.00005   0.00005   2.08626
   A60        2.09030   0.00003   0.00000   0.00009   0.00009   2.09039
   A61        2.10478   0.00003   0.00000   0.00009   0.00009   2.10487
   A62        2.08739  -0.00000   0.00000  -0.00001  -0.00001   2.08739
   A63        2.09100  -0.00002   0.00000  -0.00008  -0.00008   2.09092
   A64        2.17605  -0.00066   0.00000  -0.00227  -0.00227   2.17379
   A65        2.21997   0.00101   0.00000   0.00350   0.00350   2.22347
   A66        1.88372  -0.00034   0.00000  -0.00118  -0.00118   1.88254
   A67        2.24194  -0.00029   0.00000  -0.00100  -0.00100   2.24094
   A68        1.90795   0.00023   0.00000   0.00080   0.00080   1.90875
   A69        2.13115   0.00005   0.00000   0.00017   0.00017   2.13132
   A70        2.24295   0.00027   0.00000   0.00093   0.00093   2.24389
   A71        1.90772   0.00004   0.00000   0.00014   0.00014   1.90785
   A72        2.13034  -0.00031   0.00000  -0.00108  -0.00108   2.12927
   A73        2.04878  -0.00000   0.00000  -0.00001  -0.00001   2.04877
   A74        2.11819  -0.00001   0.00000  -0.00005  -0.00005   2.11814
   A75        2.11617   0.00002   0.00000   0.00006   0.00006   2.11623
   A76        1.86273   0.00012   0.00000   0.00040   0.00040   1.86314
   A77        2.08609  -0.00004   0.00000  -0.00014  -0.00014   2.08594
   A78        2.33392  -0.00007   0.00000  -0.00025  -0.00025   2.33367
   A79        2.04874   0.00012   0.00000   0.00041   0.00041   2.04915
   A80        2.12002  -0.00005   0.00000  -0.00017  -0.00017   2.11985
   A81        2.11437  -0.00007   0.00000  -0.00024  -0.00024   2.11413
   A82        1.86201  -0.00006   0.00000  -0.00019  -0.00019   1.86182
   A83        2.08706   0.00013   0.00000   0.00046   0.00046   2.08752
   A84        2.33350  -0.00008   0.00000  -0.00027  -0.00027   2.33323
   A85        2.11527  -0.00002   0.00000  -0.00007  -0.00007   2.11520
   A86        2.08114  -0.00001   0.00000  -0.00004  -0.00004   2.08111
   A87        2.08672   0.00003   0.00000   0.00010   0.00010   2.08682
   A88        2.07438  -0.00003   0.00000  -0.00010  -0.00010   2.07429
   A89        2.10530   0.00000   0.00000   0.00001   0.00001   2.10531
   A90        2.10346   0.00003   0.00000   0.00009   0.00009   2.10355
   A91        2.11566   0.00004   0.00000   0.00015   0.00015   2.11581
   A92        2.07743  -0.00002   0.00000  -0.00007  -0.00007   2.07735
   A93        2.09008  -0.00002   0.00000  -0.00008  -0.00008   2.09001
   A94        2.07289   0.00002   0.00000   0.00007   0.00007   2.07296
   A95        2.10610   0.00000   0.00000   0.00001   0.00001   2.10611
   A96        2.10414  -0.00002   0.00000  -0.00007  -0.00007   2.10407
   A97        2.11021   0.00004   0.00000   0.00015   0.00015   2.11036
   A98        2.08528  -0.00002   0.00000  -0.00007  -0.00007   2.08522
   A99        2.08760  -0.00002   0.00000  -0.00008  -0.00008   2.08752
   A100       2.10949  -0.00001   0.00000  -0.00004  -0.00004   2.10945
   A101       2.08583   0.00001   0.00000   0.00002   0.00002   2.08585
   A102       2.08766   0.00001   0.00000   0.00002   0.00002   2.08768
   A103       2.08001   0.00025   0.00000   0.00086   0.00086   2.08087
   A104       2.08474  -0.00004   0.00000  -0.00013  -0.00013   2.08461
   A105       2.11709  -0.00022   0.00000  -0.00075  -0.00075   2.11634
   A106       2.07856   0.00011   0.00000   0.00039   0.00039   2.07894
   A107       2.08704  -0.00009   0.00000  -0.00030  -0.00030   2.08674
   A108       2.11716  -0.00002   0.00000  -0.00008  -0.00008   2.11708
   A109       2.07840   0.00008   0.00000   0.00026   0.00026   2.07866
   A110       2.08820   0.00003   0.00000   0.00011   0.00011   2.08831
   A111       2.11649  -0.00011   0.00000  -0.00037  -0.00037   2.11612
   A112       2.09650  -0.00001   0.00000  -0.00002  -0.00002   2.09648
   A113       2.09009   0.00003   0.00000   0.00012   0.00012   2.09021
   A114       2.09652  -0.00003   0.00000  -0.00010  -0.00010   2.09642
   A115       2.09740   0.00003   0.00000   0.00010   0.00010   2.09751
   A116       2.08989   0.00000   0.00000   0.00001   0.00001   2.08990
   A117       2.09588  -0.00003   0.00000  -0.00012  -0.00012   2.09576
   A118       2.09837   0.00000   0.00000   0.00001   0.00001   2.09838
   A119       2.09255   0.00000   0.00000   0.00001   0.00001   2.09256
   A120       2.09222  -0.00001   0.00000  -0.00003  -0.00003   2.09220
    D1       -0.08939  -0.00027   0.00000  -0.00093  -0.00093  -0.09032
    D2        3.02084  -0.00042   0.00000  -0.00144  -0.00144   3.01940
    D3        2.76965  -0.00045   0.00000  -0.00155  -0.00155   2.76810
    D4       -0.40330  -0.00060   0.00000  -0.00206  -0.00206  -0.40537
    D5        0.13945   0.00031   0.00000   0.00106   0.00106   0.14052
    D6       -3.06734  -0.00005   0.00000  -0.00016  -0.00016  -3.06750
    D7       -2.72317   0.00002   0.00000   0.00008   0.00008  -2.72308
    D8        0.35322  -0.00033   0.00000  -0.00114  -0.00114   0.35208
    D9        2.31779   0.00002   0.00000   0.00007   0.00007   2.31787
   D10       -0.72383  -0.00020   0.00000  -0.00070  -0.00070  -0.72452
   D11       -1.10808   0.00004   0.00000   0.00013   0.00013  -1.10796
   D12        2.13348  -0.00019   0.00000  -0.00064  -0.00064   2.13284
   D13       -0.03434   0.00023   0.00000   0.00078   0.00079  -0.03355
   D14        3.02868   0.00013   0.00000   0.00045   0.00045   3.02914
   D15        3.13946   0.00031   0.00000   0.00107   0.00107   3.14053
   D16       -0.08070   0.00021   0.00000   0.00074   0.00074  -0.07996
   D17       -0.72684  -0.00005   0.00000  -0.00017  -0.00017  -0.72702
   D18        2.23659   0.00005   0.00000   0.00019   0.00019   2.23677
   D19        2.38299  -0.00018   0.00000  -0.00063  -0.00063   2.38236
   D20       -0.93676  -0.00008   0.00000  -0.00027  -0.00027  -0.93703
   D21        0.11367  -0.00003   0.00000  -0.00010  -0.00011   0.11356
   D22       -2.93467   0.00001   0.00000   0.00003   0.00003  -2.93464
   D23       -2.95009   0.00008   0.00000   0.00026   0.00026  -2.94983
   D24        0.28475   0.00012   0.00000   0.00040   0.00040   0.28515
   D25       -0.06368   0.00002   0.00000   0.00006   0.00006  -0.06362
   D26        3.04829   0.00012   0.00000   0.00042   0.00042   3.04871
   D27        2.98305  -0.00001   0.00000  -0.00004  -0.00004   2.98301
   D28       -0.18816   0.00009   0.00000   0.00032   0.00032  -0.18784
   D29       -0.63336   0.00018   0.00000   0.00062   0.00062  -0.63274
   D30       -2.96363   0.00010   0.00000   0.00035   0.00035  -2.96327
   D31        1.33537  -0.00026   0.00000  -0.00091  -0.00091   1.33445
   D32        2.60107   0.00018   0.00000   0.00063   0.00063   2.60170
   D33        0.27080   0.00011   0.00000   0.00037   0.00037   0.27117
   D34       -1.71339  -0.00026   0.00000  -0.00090  -0.00090  -1.71429
   D35       -0.06369  -0.00016   0.00000  -0.00054  -0.00054  -0.06423
   D36       -3.13867   0.00019   0.00000   0.00064   0.00064  -3.13803
   D37        3.10846  -0.00028   0.00000  -0.00096  -0.00096   3.10750
   D38        0.03348   0.00007   0.00000   0.00023   0.00023   0.03371
   D39       -1.57268   0.00032   0.00000   0.00110   0.00110  -1.57158
   D40        1.51389   0.00020   0.00000   0.00070   0.00070   1.51460
   D41        0.41886  -0.00016   0.00000  -0.00056  -0.00056   0.41831
   D42       -2.77774  -0.00028   0.00000  -0.00096  -0.00096  -2.77870
   D43        2.72056  -0.00007   0.00000  -0.00024  -0.00024   2.72032
   D44       -0.47605  -0.00018   0.00000  -0.00063  -0.00063  -0.47668
   D45       -0.25561   0.00012   0.00000   0.00040   0.00040  -0.25521
   D46        2.95599  -0.00002   0.00000  -0.00006  -0.00006   2.95593
   D47        3.03888   0.00012   0.00000   0.00042   0.00042   3.03930
   D48       -0.03270  -0.00001   0.00000  -0.00004  -0.00004  -0.03274
   D49        0.11887  -0.00025   0.00000  -0.00087  -0.00087   0.11801
   D50       -2.95604  -0.00020   0.00000  -0.00070  -0.00070  -2.95675
   D51        3.10881  -0.00002   0.00000  -0.00006  -0.00006   3.10875
   D52        0.03389   0.00003   0.00000   0.00010   0.00010   0.03399
   D53       -3.12747  -0.00009   0.00000  -0.00032  -0.00032  -3.12778
   D54       -0.00195   0.00013   0.00000   0.00046   0.00046  -0.00149
   D55       -0.06376   0.00008   0.00000   0.00028   0.00027  -0.06349
   D56        3.06176   0.00030   0.00000   0.00105   0.00105   3.06281
   D57        0.01878  -0.00001   0.00000  -0.00002  -0.00002   0.01876
   D58        3.12905   0.00011   0.00000   0.00038   0.00038   3.12943
   D59       -3.05862  -0.00019   0.00000  -0.00066  -0.00066  -3.05929
   D60        0.05164  -0.00008   0.00000  -0.00026  -0.00026   0.05138
   D61       -3.08584   0.00009   0.00000   0.00031   0.00031  -3.08552
   D62        0.04602   0.00010   0.00000   0.00036   0.00036   0.04638
   D63       -0.01834   0.00004   0.00000   0.00014   0.00014  -0.01820
   D64        3.11352   0.00005   0.00000   0.00018   0.00018   3.11371
   D65       -0.02202  -0.00004   0.00000  -0.00014  -0.00014  -0.02216
   D66        3.10203  -0.00008   0.00000  -0.00028  -0.00028   3.10176
   D67       -3.10309   0.00002   0.00000   0.00008   0.00008  -3.10301
   D68        0.02097  -0.00002   0.00000  -0.00007  -0.00007   0.02090
   D69        0.03114  -0.00000   0.00000  -0.00000  -0.00000   0.03113
   D70       -3.12502   0.00009   0.00000   0.00031   0.00031  -3.12471
   D71       -3.09436  -0.00023   0.00000  -0.00081  -0.00081  -3.09517
   D72        0.03268  -0.00014   0.00000  -0.00050  -0.00050   0.03218
   D73        0.00199   0.00002   0.00000   0.00006   0.00006   0.00206
   D74       -3.11867   0.00006   0.00000   0.00022   0.00022  -3.11844
   D75       -3.10201  -0.00014   0.00000  -0.00048  -0.00048  -3.10249
   D76        0.06051  -0.00009   0.00000  -0.00032  -0.00032   0.06020
   D77       -0.00496  -0.00000   0.00000  -0.00001  -0.00001  -0.00497
   D78        3.13918   0.00006   0.00000   0.00020   0.00020   3.13938
   D79        3.09523   0.00016   0.00000   0.00057   0.00057   3.09580
   D80       -0.04381   0.00022   0.00000   0.00077   0.00077  -0.04304
   D81        0.00189  -0.00002   0.00000  -0.00006  -0.00006   0.00183
   D82       -3.13509  -0.00004   0.00000  -0.00013  -0.00013  -3.13522
   D83       -3.13003  -0.00003   0.00000  -0.00010  -0.00010  -3.13014
   D84        0.01617  -0.00005   0.00000  -0.00017  -0.00017   0.01600
   D85       -0.00651  -0.00002   0.00000  -0.00008  -0.00008  -0.00660
   D86       -3.13925   0.00000   0.00000   0.00001   0.00001  -3.13925
   D87        3.11202  -0.00007   0.00000  -0.00026  -0.00026   3.11177
   D88       -0.02072  -0.00005   0.00000  -0.00016  -0.00016  -0.02088
   D89        0.01363  -0.00005   0.00000  -0.00018  -0.00018   0.01346
   D90        3.13445   0.00000   0.00000   0.00001   0.00001   3.13446
   D91       -3.11332  -0.00014   0.00000  -0.00049  -0.00049  -3.11380
   D92        0.00750  -0.00009   0.00000  -0.00030  -0.00030   0.00720
   D93       -0.02676   0.00005   0.00000   0.00017   0.00017  -0.02659
   D94        3.13565  -0.00001   0.00000  -0.00002  -0.00002   3.13564
   D95        3.11227  -0.00001   0.00000  -0.00004  -0.00004   3.11224
   D96       -0.00849  -0.00007   0.00000  -0.00023  -0.00023  -0.00872
   D97        0.01213  -0.00003   0.00000  -0.00009  -0.00009   0.01204
   D98       -3.13507   0.00002   0.00000   0.00006   0.00006  -3.13500
   D99       -3.13410  -0.00001   0.00000  -0.00003  -0.00003  -3.13413
   D100       0.00189   0.00004   0.00000   0.00013   0.00013   0.00202
   D101      -0.00959   0.00005   0.00000   0.00017   0.00017  -0.00942
   D102       3.13762   0.00000   0.00000   0.00001   0.00001   3.13763
   D103       3.12314   0.00002   0.00000   0.00007   0.00007   3.12321
   D104      -0.01284  -0.00002   0.00000  -0.00008  -0.00008  -0.01292
   D105       0.04308  -0.00023   0.00000  -0.00079  -0.00079   0.04229
   D106      -3.02849  -0.00008   0.00000  -0.00026  -0.00026  -3.02875
   D107       3.10102   0.00003   0.00000   0.00010   0.00010   3.10112
   D108       0.02944   0.00018   0.00000   0.00064   0.00064   0.03008
   D109      -0.19203  -0.00007   0.00000  -0.00025  -0.00025  -0.19228
   D110       3.02013  -0.00004   0.00000  -0.00014  -0.00014   3.01999
   D111       3.03593  -0.00023   0.00000  -0.00081  -0.00081   3.03512
   D112      -0.03509  -0.00020   0.00000  -0.00070  -0.00070  -0.03579
   D113      -3.09732   0.00006   0.00000   0.00021   0.00021  -3.09711
   D114       0.03428  -0.00000   0.00000  -0.00001  -0.00001   0.03427
   D115      -0.03375  -0.00011   0.00000  -0.00037  -0.00037  -0.03412
   D116       3.09785  -0.00017   0.00000  -0.00059  -0.00059   3.09726
   D117      -0.01271  -0.00010   0.00000  -0.00035  -0.00035  -0.01306
   D118       3.10107  -0.00005   0.00000  -0.00019  -0.00019   3.10088
   D119      -3.08958   0.00006   0.00000   0.00020   0.00020  -3.08938
   D120       0.02420   0.00010   0.00000   0.00036   0.00036   0.02457
   D121      -3.13494  -0.00008   0.00000  -0.00029  -0.00029  -3.13523
   D122      -0.00544  -0.00004   0.00000  -0.00013  -0.00013  -0.00556
   D123      -0.07195  -0.00010   0.00000  -0.00036  -0.00036  -0.07231
   D124       3.05755  -0.00006   0.00000  -0.00019  -0.00019   3.05736
   D125       0.02692   0.00014   0.00000   0.00050   0.00050   0.02742
   D126       3.13602   0.00010   0.00000   0.00035   0.00035   3.13637
   D127      -3.04953   0.00015   0.00000   0.00051   0.00051  -3.04902
   D128       0.05957   0.00010   0.00000   0.00036   0.00036   0.05994
   D129       0.01852   0.00004   0.00000   0.00014   0.00014   0.01866
   D130      -3.13389   0.00004   0.00000   0.00013   0.00013  -3.13376
   D131      -3.11309   0.00010   0.00000   0.00035   0.00035  -3.11273
   D132       0.01769   0.00010   0.00000   0.00034   0.00034   0.01803
   D133      -0.00865  -0.00003   0.00000  -0.00011  -0.00011  -0.00876
   D134      -3.11116   0.00001   0.00000   0.00005   0.00005  -3.11111
   D135      -3.11676  -0.00009   0.00000  -0.00031  -0.00031  -3.11707
   D136       0.06392  -0.00004   0.00000  -0.00015  -0.00015   0.06377
   D137       0.00150  -0.00003   0.00000  -0.00011  -0.00011   0.00139
   D138      -3.13119   0.00002   0.00000   0.00006   0.00006  -3.13114
   D139       3.10624   0.00003   0.00000   0.00011   0.00011   3.10635
   D140      -0.02645   0.00008   0.00000   0.00028   0.00028  -0.02617
   D141       0.03418   0.00004   0.00000   0.00014   0.00014   0.03432
   D142      -3.11385   0.00001   0.00000   0.00004   0.00004  -3.11381
   D143      -3.09536  -0.00001   0.00000  -0.00002  -0.00002  -3.09539
   D144       0.03979  -0.00004   0.00000  -0.00013  -0.00013   0.03967
   D145      -0.00722  -0.00004   0.00000  -0.00013  -0.00013  -0.00735
   D146      -3.13757  -0.00007   0.00000  -0.00022  -0.00023  -3.13779
   D147       3.09132  -0.00009   0.00000  -0.00031  -0.00031   3.09100
   D148      -0.03903  -0.00012   0.00000  -0.00041  -0.00041  -0.03944
   D149       0.00613   0.00003   0.00000   0.00010   0.00010   0.00623
   D150       3.13317   0.00002   0.00000   0.00007   0.00007   3.13323
   D151      -3.12461   0.00003   0.00000   0.00011   0.00011  -3.12450
   D152       0.00242   0.00002   0.00000   0.00008   0.00008   0.00250
   D153      -0.01627  -0.00003   0.00000  -0.00011  -0.00011  -0.01638
   D154       3.13990  -0.00002   0.00000  -0.00008  -0.00008   3.13982
   D155       3.11643  -0.00008   0.00000  -0.00028  -0.00028   3.11616
   D156      -0.01058  -0.00007   0.00000  -0.00025  -0.00025  -0.01083
   D157       0.01584   0.00004   0.00000   0.00014   0.00014   0.01598
   D158       3.13552   0.00002   0.00000   0.00006   0.00006   3.13558
   D159      -3.11927   0.00007   0.00000   0.00024   0.00024  -3.11903
   D160       0.00041   0.00005   0.00000   0.00016   0.00016   0.00058
   D161      -0.02938  -0.00004   0.00000  -0.00014  -0.00014  -0.02952
   D162       3.13415  -0.00002   0.00000  -0.00006  -0.00006   3.13408
   D163       3.10098  -0.00001   0.00000  -0.00005  -0.00005   3.10094
   D164      -0.01868   0.00001   0.00000   0.00003   0.00003  -0.01864
   D165       3.07747  -0.00011   0.00000  -0.00038  -0.00038   3.07709
   D166      -0.09496  -0.00005   0.00000  -0.00016  -0.00016  -0.09511
   D167      -0.00805   0.00000   0.00000   0.00001   0.00001  -0.00805
   D168       3.10270   0.00007   0.00000   0.00023   0.00023   3.10293
   D169      -3.08099   0.00011   0.00000   0.00039   0.00039  -3.08060
   D170       0.07518   0.00013   0.00000   0.00046   0.00046   0.07564
   D171       0.00438   0.00001   0.00000   0.00003   0.00003   0.00442
   D172      -3.12263   0.00003   0.00000   0.00010   0.00010  -3.12252
   D173       0.00249  -0.00001   0.00000  -0.00003  -0.00003   0.00246
   D174       3.13156  -0.00001   0.00000  -0.00004  -0.00004   3.13151
   D175      -3.10772  -0.00007   0.00000  -0.00026  -0.00026  -3.10797
   D176       0.02135  -0.00008   0.00000  -0.00027  -0.00027   0.02108
   D177       0.00486  -0.00001   0.00000  -0.00005  -0.00005   0.00481
   D178      -3.13129  -0.00002   0.00000  -0.00008  -0.00008  -3.13137
   D179       3.13162  -0.00003   0.00000  -0.00012  -0.00012   3.13151
   D180      -0.00453  -0.00004   0.00000  -0.00015  -0.00015  -0.00468
   D181       0.00663   0.00001   0.00000   0.00002   0.00002   0.00665
   D182       3.13808   0.00002   0.00000   0.00007   0.00007   3.13815
   D183      -3.12240   0.00001   0.00000   0.00003   0.00003  -3.12236
   D184       0.00906   0.00002   0.00000   0.00008   0.00008   0.00914
   D185      -0.01036   0.00001   0.00000   0.00002   0.00002  -0.01034
   D186       3.14137  -0.00001   0.00000  -0.00002  -0.00002   3.14134
   D187       3.12577   0.00002   0.00000   0.00005   0.00005   3.12583
   D188      -0.00569   0.00000   0.00000   0.00001   0.00001  -0.00568
         Item               Value     Threshold  Converged?
 Maximum Force            0.014465     0.000450     NO 
 RMS     Force            0.000957     0.000300     NO 
 Maximum Displacement     0.089666     0.001800     NO 
 RMS     Displacement     0.022382     0.001200     NO 
 Predicted change in Energy=-4.852818D-04
 GradGradGradGradGradGradGradGradGradGradGradGradGradGradGradGradGradGrad

 Leave Link  103 at Sat Aug 17 14:41:08 2024, MaxMem=  2147483648 cpu:             175.8 elap:              35.7
 (Enter /apps/gaussian/g16/l202.exe)
 Stoichiometry    C36H24N2O2S
 Framework group  C1[X(C36H24N2O2S)]
 Deg. of freedom   189
 Full point group                 C1      NOp   1
 RotChk:  IX=0 Diff= 2.01D-02
 Largest Abelian subgroup         C1      NOp   1
 Largest concise Abelian subgroup C1      NOp   1
                         Standard orientation:                         
 ---------------------------------------------------------------------
 Center     Atomic      Atomic             Coordinates (Angstroms)
 Number     Number       Type             X           Y           Z
 ---------------------------------------------------------------------
      1          6           0       -0.326430   -1.445788   -0.193082
      2          6           0        0.284941   -0.299279   -0.883144
      3          6           0        1.582302   -0.363114   -1.287517
      4          6           0        2.357920   -1.525848   -1.004716
      5          6           0        1.750190   -2.697142   -0.417018
      6          6           0        0.449706   -2.672567   -0.061692
      7         16           0        4.092357   -1.458698   -1.251786
      8          8           0        4.360755   -0.632345   -2.430643
      9          1           0        2.010391    0.432245   -1.886707
     10          1           0        2.353245   -3.589677   -0.298241
     11          1           0       -0.020651   -3.542140    0.383633
     12          7           0       -0.499576    0.834776   -1.148118
     13          6           0       -1.826670    0.835221   -1.602954
     14          6           0       -0.153926    2.148644   -0.810939
     15          6           0       -2.567812   -0.212262   -2.149789
     16          6           0       -2.343863    2.143487   -1.515821
     17          6           0        1.040212    2.640660   -0.281755
     18          6           0       -1.276116    2.982899   -1.008167
     19          6           0       -3.874579    0.060076   -2.540289
     20          1           0       -2.137039   -1.197646   -2.279014
     21          6           0       -3.651986    2.397939   -1.928676
     22          6           0        1.097490    3.995428    0.027378
     23          1           0        1.891651    1.993090   -0.107564
     24          6           0       -1.193479    4.338445   -0.693143
     25          6           0       -4.416703    1.347570   -2.425168
     26          1           0       -4.478159   -0.740549   -2.953898
     27          1           0       -4.064248    3.399660   -1.865506
     28          6           0       -0.001601    4.840284   -0.180702
     29          1           0        2.016627    4.403671    0.434441
     30          1           0       -2.049633    4.989041   -0.838262
     31          1           0       -5.437216    1.528540   -2.744908
     32          1           0        0.078216    5.893640    0.065395
     33          7           0       -1.455404   -1.274709    0.606911
     34          6           0       -2.596462   -2.082768    0.552382
     35          6           0       -1.709537   -0.231273    1.510900
     36          6           0       -2.823994   -3.207740   -0.239477
     37          6           0       -3.595564   -1.538805    1.388165
     38          6           0       -0.833721    0.747464    1.976288
     39          6           0       -3.028758   -0.346402    1.997426
     40          6           0       -4.074480   -3.812711   -0.148313
     41          1           0       -2.061271   -3.591092   -0.907223
     42          6           0       -4.842083   -2.152124    1.454521
     43          6           0       -1.334215    1.675395    2.884793
     44          1           0        0.199431    0.780529    1.654205
     45          6           0       -3.505062    0.581164    2.918390
     46          6           0       -5.070964   -3.296041    0.689560
     47          1           0       -4.281383   -4.694115   -0.745533
     48          1           0       -5.626098   -1.743854    2.083411
     49          6           0       -2.654759    1.601735    3.344587
     50          1           0       -0.682689    2.464045    3.244013
     51          1           0       -4.515463    0.506996    3.306530
     52          1           0       -6.037994   -3.785175    0.733202
     53          1           0       -3.014179    2.336339    4.056909
     54          8           0        4.628854   -2.833367   -1.132813
     55          6           0        4.662163   -0.525364    0.171816
     56          6           0        4.749924    0.865378    0.084505
     57          6           0        4.944497   -1.195271    1.362770
     58          6           0        5.117633    1.593555    1.213734
     59          1           0        4.559444    1.355008   -0.864265
     60          6           0        5.315266   -0.456854    2.483597
     61          1           0        4.885292   -2.277421    1.396564
     62          6           0        5.395904    0.934623    2.411823
     63          1           0        5.198235    2.674117    1.155176
     64          1           0        5.546360   -0.967711    3.412381
     65          1           0        5.685100    1.505171    3.288313
 ---------------------------------------------------------------------
 Rotational constants (GHZ):           0.1310422           0.0696615           0.0603842
 Leave Link  202 at Sat Aug 17 14:41:09 2024, MaxMem=  2147483648 cpu:               0.9 elap:               0.2
 (Enter /apps/gaussian/g16/l301.exe)
 Standard basis: 6-31G(d,p) (6D, 7F)
 Ernie: Thresh=  0.10000D-02 Tol=  0.10000D-05 Strict=F.
 There are   739 symmetry adapted cartesian basis functions of A   symmetry.
 There are   739 symmetry adapted basis functions of A   symmetry.
   739 basis functions,  1340 primitive gaussians,   739 cartesian basis functions
   143 alpha electrons      143 beta electrons
       nuclear repulsion energy      4838.1982964867 Hartrees.
 IExCor= 4639 DFT=T Ex+Corr=wB97XD ExCW=0 ScaHFX=  1.000000
 ScaDFX=  1.000000  1.000000  1.000000  1.000000 ScalE2=  1.000000  1.000000
 IRadAn=      5 IRanWt=     -1 IRanGd=            0 ICorTp=0 IEmpDi=121
 HFx  wShort=  0.000000 wLong=  0.136000 cFull=  0.222036 cShort=  0.000000 cLong=  0.777964
 DFx  wShort=  0.000000 wLong=  0.136000 cFull=  0.000000 cShort=  0.000000 cLong=  1.000000
 NAtoms=   65 NActive=   65 NUniq=   65 SFac= 1.00D+00 NAtFMM=   60 NAOKFM=T Big=T
 Integral buffers will be    131072 words long.
 Raffenetti 1 integral format.
 Two-electron integral symmetry is turned on.
 R6Disp:  Grimme-D2 Dispersion energy=       -0.0660723944 Hartrees.
 Nuclear repulsion after empirical dispersion term =     4838.1322240923 Hartrees.
 Leave Link  301 at Sat Aug 17 14:41:09 2024, MaxMem=  2147483648 cpu:               1.0 elap:               0.2
 (Enter /apps/gaussian/g16/l302.exe)
 NPDir=0 NMtPBC=     1 NCelOv=     1 NCel=       1 NClECP=     1 NCelD=      1
         NCelK=      1 NCelE2=     1 NClLst=     1 CellRange=     0.0.
 One-electron integrals computed using PRISM.
 One-electron integral symmetry used in STVInt
 NBasis=   739 RedAO= T EigKep=  2.69D-04  NBF=   739
 NBsUse=   739 1.00D-06 EigRej= -1.00D+00 NBFU=   739
 Precomputing XC quadrature grid using
 IXCGrd= 4 IRadAn=           5 IRanWt=          -1 IRanGd=           0 AccXCQ= 0.00D+00.
 Generated NRdTot=       0 NPtTot=           0 NUsed=           0 NTot=          32
 NSgBfM=   728   728   728   728   728 MxSgAt=    65 MxSgA2=    65.
 Leave Link  302 at Sat Aug 17 14:41:19 2024, MaxMem=  2147483648 cpu:              66.9 elap:              10.2
 (Enter /apps/gaussian/g16/l303.exe)
 DipDrv:  MaxL=1.
 Leave Link  303 at Sat Aug 17 14:41:20 2024, MaxMem=  2147483648 cpu:               2.9 elap:               0.6
 (Enter /apps/gaussian/g16/l308.exe)
 Leave Link  308 at Sat Aug 17 14:41:20 2024, MaxMem=  2147483648 cpu:               1.6 elap:               0.4
 (Enter /apps/gaussian/g16/l401.exe)
 Initial guess from the checkpoint file:  "YZ-VIII-195.chk"
 B after Tr=     0.000000   -0.000000   -0.000000
         Rot=    0.999975   -0.006797    0.000738    0.001692 Ang=  -0.81 deg.
 Guess basis will be translated and rotated to current coordinates.
 JPrj=2 DoOrth=T DoCkMO=T.
 Generating alternative initial guess.
 ExpMin= 1.17D-01 ExpMax= 2.19D+04 ExpMxC= 3.30D+03 IAcc=3 IRadAn=         5 AccDes= 0.00D+00
 Harris functional with IExCor= 4639 and IRadAn=       5 diagonalized for initial guess.
 HarFok:  IExCor= 4639 AccDes= 0.00D+00 IRadAn=         5 IDoV= 1 UseB2=F ITyADJ=14
 ICtDFT=  3500011 ScaDFX=  1.000000  1.000000  1.000000  1.000000
 FoFCou: FMM=F IPFlag=           0 FMFlag=      100000 FMFlg1=        2001
         NFxFlg=           0 DoJE=T BraDBF=F KetDBF=T FulRan=T
         wScrn=  0.000000 ICntrl=       500 IOpCl=  0 I1Cent=   200000004 NGrid=           0
         NMat0=    1 NMatS0=      1 NMatT0=    0 NMatD0=    1 NMtDS0=    0 NMtDT0=    0
 Petite list used in FoFCou.
 Harris En= -1972.36467856334    
 Leave Link  401 at Sat Aug 17 14:41:37 2024, MaxMem=  2147483648 cpu:             107.7 elap:              16.6
 (Enter /apps/gaussian/g16/l502.exe)
 Integral symmetry usage will be decided dynamically.
 Closed shell SCF:
 Using DIIS extrapolation, IDIIS=  1040.
 NGot=  2147483648 LenX=  2146370496 LenY=  2145823636
 Requested convergence on RMS density matrix=1.00D-08 within 128 cycles.
 Requested convergence on MAX density matrix=1.00D-06.
 Requested convergence on             energy=1.00D-06.
 No special actions if energy rises.
 Fock matrices will be formed incrementally for  20 cycles.
 Integral accuracy reduced to 1.0D-05 until final iterations.

 Cycle   1  Pass 0  IDiag  1:
 FoFJK:  IHMeth= 1 ICntrl=       0 DoSepK=T KAlg= 0 I1Cent=           0 FoldK=F
 IRaf=         1 NMat=       1 IRICut=       1 DoRegI=T DoRafI=F ISym2E= 0 IDoP0=0 IntGTp=1.
 FoFCou: FMM=T IPFlag=           0 FMFlag=      100000 FMFlg1=        2001
         NFxFlg=           0 DoJE=T BraDBF=F KetDBF=F FulRan=T
         wScrn=  0.000000 ICntrl=       500 IOpCl=  0 I1Cent=           0 NGrid=           0
         NMat0=    1 NMatS0=      1 NMatT0=    0 NMatD0=    1 NMtDS0=    0 NMtDT0=    0
 Symmetry not used in FoFCou.
 FMM levels:  10  Number of levels for PrismC:   9
 E= -2044.00523770358    
 DIIS: error= 7.87D-04 at cycle   1 NSaved=   1.
 NSaved= 1 IEnMin= 1 EnMin= -2044.00523770358     IErMin= 1 ErrMin= 7.87D-04
 ErrMax= 7.87D-04  0.00D+00 EMaxC= 1.00D-01 BMatC= 8.55D-04 BMatP= 8.55D-04
 IDIUse=3 WtCom= 9.92D-01 WtEn= 7.87D-03
 Coeff-Com:  0.100D+01
 Coeff-En:   0.100D+01
 Coeff:      0.100D+01
 Gap=     1.874 Goal=   None    Shift=    0.000
 RMSDP=1.37D-04 MaxDP=7.53D-03              OVMax= 5.62D-03

 Cycle   2  Pass 0  IDiag  1:
 RMSU=  1.37D-04    CP:  1.00D+00
 E= -2044.00623913706     Delta-E=       -0.001001433471 Rises=F Damp=F
 DIIS: error= 4.77D-04 at cycle   2 NSaved=   2.
 NSaved= 2 IEnMin= 2 EnMin= -2044.00623913706     IErMin= 2 ErrMin= 4.77D-04
 ErrMax= 4.77D-04  0.00D+00 EMaxC= 1.00D-01 BMatC= 2.19D-04 BMatP= 8.55D-04
 IDIUse=3 WtCom= 9.95D-01 WtEn= 4.77D-03
 Coeff-Com:  0.231D+00 0.769D+00
 Coeff-En:   0.000D+00 0.100D+01
 Coeff:      0.230D+00 0.770D+00
 Gap=     0.228 Goal=   None    Shift=    0.000
 RMSDP=3.71D-05 MaxDP=5.39D-03 DE=-1.00D-03 OVMax= 6.10D-03

 Cycle   3  Pass 0  IDiag  1:
 RMSU=  3.70D-05    CP:  1.00D+00  9.83D-01
 E= -2044.00626996325     Delta-E=       -0.000030826195 Rises=F Damp=F
 DIIS: error= 4.38D-04 at cycle   3 NSaved=   3.
 NSaved= 3 IEnMin= 3 EnMin= -2044.00626996325     IErMin= 3 ErrMin= 4.38D-04
 ErrMax= 4.38D-04  0.00D+00 EMaxC= 1.00D-01 BMatC= 2.07D-04 BMatP= 2.19D-04
 IDIUse=3 WtCom= 9.96D-01 WtEn= 4.38D-03
 Coeff-Com: -0.698D-01 0.507D+00 0.562D+00
 Coeff-En:   0.000D+00 0.458D+00 0.542D+00
 Coeff:     -0.695D-01 0.507D+00 0.562D+00
 Gap=     0.228 Goal=   None    Shift=    0.000
 RMSDP=2.20D-05 MaxDP=2.76D-03 DE=-3.08D-05 OVMax= 3.20D-03

 Cycle   4  Pass 0  IDiag  1:
 RMSU=  1.14D-05    CP:  1.00D+00  1.04D+00  5.46D-01
 E= -2044.00642694894     Delta-E=       -0.000156985694 Rises=F Damp=F
 DIIS: error= 6.26D-05 at cycle   4 NSaved=   4.
 NSaved= 4 IEnMin= 4 EnMin= -2044.00642694894     IErMin= 4 ErrMin= 6.26D-05
 ErrMax= 6.26D-05  0.00D+00 EMaxC= 1.00D-01 BMatC= 4.57D-06 BMatP= 2.07D-04
 IDIUse=1 WtCom= 1.00D+00 WtEn= 0.00D+00
 Coeff-Com: -0.387D-01 0.170D+00 0.239D+00 0.629D+00
 Coeff:     -0.387D-01 0.170D+00 0.239D+00 0.629D+00
 Gap=     0.228 Goal=   None    Shift=    0.000
 RMSDP=5.19D-06 MaxDP=2.99D-04 DE=-1.57D-04 OVMax= 4.33D-04

 Initial convergence to 1.0D-05 achieved.  Increase integral accuracy.
 Cycle   5  Pass 1  IDiag  1:
 E= -2044.00663176404     Delta-E=       -0.000204815094 Rises=F Damp=F
 DIIS: error= 2.22D-04 at cycle   1 NSaved=   1.
 NSaved= 1 IEnMin= 1 EnMin= -2044.00663176404     IErMin= 1 ErrMin= 2.22D-04
 ErrMax= 2.22D-04  0.00D+00 EMaxC= 1.00D-01 BMatC= 2.46D-05 BMatP= 2.46D-05
 IDIUse=3 WtCom= 9.98D-01 WtEn= 2.22D-03
 Coeff-Com:  0.100D+01
 Coeff-En:   0.100D+01
 Coeff:      0.100D+01
 Gap=     0.228 Goal=   None    Shift=    0.000
 RMSDP=5.19D-06 MaxDP=2.99D-04 DE=-2.05D-04 OVMax= 6.19D-04

 Cycle   6  Pass 1  IDiag  1:
 RMSU=  1.15D-04    CP:  1.00D+00
 E= -2044.00665229707     Delta-E=       -0.000020533028 Rises=F Damp=F
 DIIS: error= 1.85D-05 at cycle   2 NSaved=   2.
 NSaved= 2 IEnMin= 2 EnMin= -2044.00665229707     IErMin= 2 ErrMin= 1.85D-05
 ErrMax= 1.85D-05  0.00D+00 EMaxC= 1.00D-01 BMatC= 8.87D-07 BMatP= 2.46D-05
 IDIUse=1 WtCom= 1.00D+00 WtEn= 0.00D+00
 Coeff-Com:  0.216D-01 0.978D+00
 Coeff:      0.216D-01 0.978D+00
 Gap=     0.228 Goal=   None    Shift=    0.000
 RMSDP=6.40D-06 MaxDP=2.31D-04 DE=-2.05D-05 OVMax= 4.47D-04

 Cycle   7  Pass 1  IDiag  1:
 RMSU=  3.71D-06    CP:  1.00D+00  1.05D+00
 E= -2044.00665158249     Delta-E=        0.000000714574 Rises=F Damp=F
 DIIS: error= 2.73D-05 at cycle   3 NSaved=   3.
 NSaved= 3 IEnMin= 2 EnMin= -2044.00665229707     IErMin= 2 ErrMin= 1.85D-05
 ErrMax= 2.73D-05  0.00D+00 EMaxC= 1.00D-01 BMatC= 1.62D-06 BMatP= 8.87D-07
 IDIUse=1 WtCom= 1.00D+00 WtEn= 0.00D+00
 Coeff-Com: -0.223D-01 0.588D+00 0.435D+00
 Coeff:     -0.223D-01 0.588D+00 0.435D+00
 Gap=     0.228 Goal=   None    Shift=    0.000
 RMSDP=2.12D-06 MaxDP=1.44D-04 DE= 7.15D-07 OVMax= 2.99D-04

 Cycle   8  Pass 1  IDiag  1:
 RMSU=  9.14D-07    CP:  1.00D+00  1.05D+00  4.95D-01
 E= -2044.00665321658     Delta-E=       -0.000001634086 Rises=F Damp=F
 DIIS: error= 3.66D-06 at cycle   4 NSaved=   4.
 NSaved= 4 IEnMin= 4 EnMin= -2044.00665321658     IErMin= 4 ErrMin= 3.66D-06
 ErrMax= 3.66D-06  0.00D+00 EMaxC= 1.00D-01 BMatC= 3.40D-08 BMatP= 8.87D-07
 IDIUse=1 WtCom= 1.00D+00 WtEn= 0.00D+00
 Coeff-Com: -0.129D-01 0.298D+00 0.238D+00 0.477D+00
 Coeff:     -0.129D-01 0.298D+00 0.238D+00 0.477D+00
 Gap=     0.228 Goal=   None    Shift=    0.000
 RMSDP=3.12D-07 MaxDP=2.56D-05 DE=-1.63D-06 OVMax= 3.49D-05

 Cycle   9  Pass 1  IDiag  1:
 RMSU=  2.64D-07    CP:  1.00D+00  1.05D+00  5.22D-01  8.66D-01
 E= -2044.00665324694     Delta-E=       -0.000000030360 Rises=F Damp=F
 DIIS: error= 7.62D-07 at cycle   5 NSaved=   5.
 NSaved= 5 IEnMin= 5 EnMin= -2044.00665324694     IErMin= 5 ErrMin= 7.62D-07
 ErrMax= 7.62D-07  0.00D+00 EMaxC= 1.00D-01 BMatC= 1.36D-09 BMatP= 3.40D-08
 IDIUse=1 WtCom= 1.00D+00 WtEn= 0.00D+00
 Coeff-Com:  0.711D-04-0.131D-01-0.359D-02 0.143D+00 0.874D+00
 Coeff:      0.711D-04-0.131D-01-0.359D-02 0.143D+00 0.874D+00
 Gap=     0.228 Goal=   None    Shift=    0.000
 RMSDP=1.12D-07 MaxDP=7.37D-06 DE=-3.04D-08 OVMax= 1.20D-05

 Cycle  10  Pass 1  IDiag  1:
 RMSU=  7.59D-08    CP:  1.00D+00  1.05D+00  5.26D-01  9.42D-01  9.50D-01
 E= -2044.00665324843     Delta-E=       -0.000000001486 Rises=F Damp=F
 DIIS: error= 3.49D-07 at cycle   6 NSaved=   6.
 NSaved= 6 IEnMin= 6 EnMin= -2044.00665324843     IErMin= 6 ErrMin= 3.49D-07
 ErrMax= 3.49D-07  0.00D+00 EMaxC= 1.00D-01 BMatC= 3.70D-10 BMatP= 1.36D-09
 IDIUse=1 WtCom= 1.00D+00 WtEn= 0.00D+00
 Coeff-Com:  0.107D-02-0.313D-01-0.212D-01 0.382D-01 0.469D+00 0.544D+00
 Coeff:      0.107D-02-0.313D-01-0.212D-01 0.382D-01 0.469D+00 0.544D+00
 Gap=     0.228 Goal=   None    Shift=    0.000
 RMSDP=3.72D-08 MaxDP=3.65D-06 DE=-1.49D-09 OVMax= 5.38D-06

 Cycle  11  Pass 1  IDiag  1:
 RMSU=  3.14D-08    CP:  1.00D+00  1.05D+00  5.27D-01  9.51D-01  9.85D-01
                    CP:  8.08D-01
 E= -2044.00665324888     Delta-E=       -0.000000000455 Rises=F Damp=F
 DIIS: error= 1.10D-07 at cycle   7 NSaved=   7.
 NSaved= 7 IEnMin= 7 EnMin= -2044.00665324888     IErMin= 7 ErrMin= 1.10D-07
 ErrMax= 1.10D-07  0.00D+00 EMaxC= 1.00D-01 BMatC= 2.87D-11 BMatP= 3.70D-10
 IDIUse=1 WtCom= 1.00D+00 WtEn= 0.00D+00
 Coeff-Com:  0.434D-03-0.109D-01-0.796D-02-0.715D-02 0.533D-01 0.210D+00
 Coeff-Com:  0.763D+00
 Coeff:      0.434D-03-0.109D-01-0.796D-02-0.715D-02 0.533D-01 0.210D+00
 Coeff:      0.763D+00
 Gap=     0.228 Goal=   None    Shift=    0.000
 RMSDP=1.55D-08 MaxDP=9.87D-07 DE=-4.55D-10 OVMax= 3.08D-06

 Cycle  12  Pass 1  IDiag  1:
 RMSU=  1.07D-08    CP:  1.00D+00  1.05D+00  5.28D-01  9.53D-01  9.93D-01
                    CP:  9.45D-01  1.05D+00
 E= -2044.00665324890     Delta-E=       -0.000000000020 Rises=F Damp=F
 DIIS: error= 6.47D-08 at cycle   8 NSaved=   8.
 NSaved= 8 IEnMin= 8 EnMin= -2044.00665324890     IErMin= 8 ErrMin= 6.47D-08
 ErrMax= 6.47D-08  0.00D+00 EMaxC= 1.00D-01 BMatC= 8.29D-12 BMatP= 2.87D-11
 IDIUse=1 WtCom= 1.00D+00 WtEn= 0.00D+00
 Coeff-Com:  0.185D-04 0.376D-03 0.782D-04-0.111D-01-0.612D-01 0.382D-02
 Coeff-Com:  0.394D+00 0.674D+00
 Coeff:      0.185D-04 0.376D-03 0.782D-04-0.111D-01-0.612D-01 0.382D-02
 Coeff:      0.394D+00 0.674D+00
 Gap=     0.228 Goal=   None    Shift=    0.000
 RMSDP=7.52D-09 MaxDP=3.38D-07 DE=-2.00D-11 OVMax= 1.81D-06

 SCF Done:  E(RwB97XD) =  -2044.00665325     A.U. after   12 cycles
            NFock= 12  Conv=0.75D-08     -V/T= 2.0082
 KE= 2.027285835122D+03 PE=-1.443879173251D+04 EE= 5.529367020049D+03
 Leave Link  502 at Sat Aug 17 14:47:23 2024, MaxMem=  2147483648 cpu:            2255.0 elap:             346.0
 (Enter /apps/gaussian/g16/l801.exe)
 DoSCS=F DFT=T ScalE2(SS,OS)=  1.000000  1.000000
 ExpMin= 1.17D-01 ExpMax= 2.19D+04 ExpMxC= 3.30D+03 IAcc=3 IRadAn=         5 AccDes= 0.00D+00
 HarFok:  IExCor=  205 AccDes= 0.00D+00 IRadAn=         5 IDoV=-2 UseB2=F ITyADJ=14
 ICtDFT= 12500011 ScaDFX=  1.000000  1.000000  1.000000  1.000000
 GSVD:  LWork=       -2385 too small for GESVD, short by       10800 words or       10800 for optimal perf.
 Largest valence mixing into a core orbital is  1.65D-04
 Largest core mixing into a valence orbital is  3.42D-05
 Range of M.O.s used for correlation:    46   739
 NBasis=   739 NAE=   143 NBE=   143 NFC=    45 NFV=     0
 NROrb=    694 NOA=    98 NOB=    98 NVA=   596 NVB=   596
 Leave Link  801 at Sat Aug 17 14:47:27 2024, MaxMem=  2147483648 cpu:              22.3 elap:               3.9
 (Enter /apps/gaussian/g16/l914.exe)
 RHF ground state
 Two-electron integrals replicated using symmetry.
 MDV=  2147483648 DFT=T DoStab=F Mixed=T DoRPA=F DoScal=F NonHer=F
 Making orbital integer symmetry assigments:
 Orbital symmetries:
       Occupied  (A) (A) (A) (A) (A) (A) (A) (A) (A) (A) (A) (A)
                 (A) (A) (A) (A) (A) (A) (A) (A) (A) (A) (A) (A)
                 (A) (A) (A) (A) (A) (A) (A) (A) (A) (A) (A) (A)
                 (A) (A) (A) (A) (A) (A) (A) (A) (A) (A) (A) (A)
                 (A) (A) (A) (A) (A) (A) (A) (A) (A) (A) (A) (A)
                 (A) (A) (A) (A) (A) (A) (A) (A) (A) (A) (A) (A)
                 (A) (A) (A) (A) (A) (A) (A) (A) (A) (A) (A) (A)
                 (A) (A) (A) (A) (A) (A) (A) (A) (A) (A) (A) (A)
                 (A) (A) (A) (A) (A) (A) (A) (A) (A) (A) (A) (A)
                 (A) (A) (A) (A) (A) (A) (A) (A) (A) (A) (A) (A)
                 (A) (A) (A) (A) (A) (A) (A) (A) (A) (A) (A) (A)
                 (A) (A) (A) (A) (A) (A) (A) (A) (A) (A) (A)
       Virtual   (A) (A) (A) (A) (A) (A) (A) (A) (A) (A) (A) (A)
                 (A) (A) (A) (A) (A) (A) (A) (A) (A) (A) (A) (A)
                 (A) (A) (A) (A) (A) (A) (A) (A) (A) (A) (A) (A)
                 (A) (A) (A) (A) (A) (A) (A) (A) (A) (A) (A) (A)
                 (A) (A) (A) (A) (A) (A) (A) (A) (A) (A) (A) (A)
                 (A) (A) (A) (A) (A) (A) (A) (A) (A) (A) (A) (A)
                 (A) (A) (A) (A) (A) (A) (A) (A) (A) (A) (A) (A)
                 (A) (A) (A) (A) (A) (A) (A) (A) (A) (A) (A) (A)
                 (A) (A) (A) (A) (A) (A) (A) (A) (A) (A) (A) (A)
                 (A) (A) (A) (A) (A) (A) (A) (A) (A) (A) (A) (A)
                 (A) (A) (A) (A) (A) (A) (A) (A) (A) (A) (A) (A)
                 (A) (A) (A) (A) (A) (A) (A) (A) (A) (A) (A) (A)
                 (A) (A) (A) (A) (A) (A) (A) (A) (A) (A) (A) (A)
                 (A) (A) (A) (A) (A) (A) (A) (A) (A) (A) (A) (A)
                 (A) (A) (A) (A) (A) (A) (A) (A) (A) (A) (A) (A)
                 (A) (A) (A) (A) (A) (A) (A) (A) (A) (A) (A) (A)
                 (A) (A) (A) (A) (A) (A) (A) (A) (A) (A) (A) (A)
                 (A) (A) (A) (A) (A) (A) (A) (A) (A) (A) (A) (A)
                 (A) (A) (A) (A) (A) (A) (A) (A) (A) (A) (A) (A)
                 (A) (A) (A) (A) (A) (A) (A) (A) (A) (A) (A) (A)
                 (A) (A) (A) (A) (A) (A) (A) (A) (A) (A) (A) (A)
                 (A) (A) (A) (A) (A) (A) (A) (A) (A) (A) (A) (A)
                 (A) (A) (A) (A) (A) (A) (A) (A) (A) (A) (A) (A)
                 (A) (A) (A) (A) (A) (A) (A) (A) (A) (A) (A) (A)
                 (A) (A) (A) (A) (A) (A) (A) (A) (A) (A) (A) (A)
                 (A) (A) (A) (A) (A) (A) (A) (A) (A) (A) (A) (A)
                 (A) (A) (A) (A) (A) (A) (A) (A) (A) (A) (A) (A)
                 (A) (A) (A) (A) (A) (A) (A) (A) (A) (A) (A) (A)
                 (A) (A) (A) (A) (A) (A) (A) (A) (A) (A) (A) (A)
                 (A) (A) (A) (A) (A) (A) (A) (A) (A) (A) (A) (A)
                 (A) (A) (A) (A) (A) (A) (A) (A) (A) (A) (A) (A)
                 (A) (A) (A) (A) (A) (A) (A) (A) (A) (A) (A) (A)
                 (A) (A) (A) (A) (A) (A) (A) (A) (A) (A) (A) (A)
                 (A) (A) (A) (A) (A) (A) (A) (A) (A) (A) (A) (A)
                 (A) (A) (A) (A) (A) (A) (A) (A) (A) (A) (A) (A)
                 (A) (A) (A) (A) (A) (A) (A) (A) (A) (A) (A) (A)
                 (A) (A) (A) (A) (A) (A) (A) (A) (A) (A) (A) (A)
                 (A) (A) (A) (A) (A) (A) (A) (A) (A) (A) (A) (A)
                 (A) (A) (A) (A) (A) (A) (A) (A) (A) (A) (A) (A)
                 (A) (A) (A) (A) (A) (A) (A) (A) (A) (A) (A) (A)
                 (A) (A) (A) (A) (A) (A) (A) (A) (A) (A) (A) (A)
                 (A) (A) (A) (A) (A) (A) (A) (A) (A) (A) (A) (A)
                 (A) (A) (A) (A) (A) (A) (A) (A) (A) (A) (A) (A)
                 (A) (A) (A) (A) (A) (A) (A) (A) (A) (A) (A) (A)
                 (A) (A) (A) (A) (A) (A) (A) (A) (A) (A) (A) (A)
                 (A) (A) (A) (A) (A) (A) (A) (A) (A) (A) (A) (A)
                 (A) (A) (A) (A) (A) (A) (A) (A) (A) (A) (A) (A)
                 (A) (A) (A) (A) (A) (A) (A) (A) (A) (A) (A) (A)
                 (A) (A) (A) (A) (A) (A) (A) (A) (A) (A) (A) (A)
                 (A) (A) (A) (A) (A) (A) (A) (A)
 Generating guess from densities on rwf.
 Convergence on wavefunction:    0.000001000000000
 Davidson Disk Diagonalization:  ConvIn= 1.00D-06 SkipCon=T Conv= 1.00D-06.
 Max sub-space:  2000 roots to seek:     4 dimension of matrix:       116816
 Iteration     1 Dimension     4 NMult     0 NNew      4
 CISAX will form     4 AO SS matrices at one time.
 NMat=     4 NSing=     0 JSym2X= 0.
 FoFJK:  IHMeth= 1 ICntrl=       0 DoSepK=T KAlg= 0 I1Cent=           0 FoldK=F
 IRaf=         1 NMat=       8 IRICut=       1 DoRegI=T DoRafI=F ISym2E= 0 IDoP0=0 IntGTp=1.
 FoFCou: FMM=T IPFlag=           0 FMFlag=      100000 FMFlg1=        2001
         NFxFlg=           0 DoJE=F BraDBF=F KetDBF=F FulRan=T
         wScrn=  0.000000 ICntrl=         0 IOpCl=  0 I1Cent=           0 NGrid=           0
         NMat0=    8 NMatS0=      0 NMatT0=    4 NMatD0=    8 NMtDS0=    0 NMtDT0=    0
         CW=    0.222036    0.777964
         WU=    0.000000   27.032872
 Symmetry not used in FoFCou.
 FMM levels:  10  Number of levels for PrismC:   7
 Excitation Energies [eV] at current iteration:
 Root      1 :     2.660315725357882
 Root      2 :     3.295232913366793
 Root      3 :     3.576267439974147
 Root      4 :     3.593613792908778
 Iteration     2 Dimension     8 NMult     4 NNew      4
 CISAX will form     4 AO SS matrices at one time.
 NMat=     4 NSing=     0 JSym2X= 0.
 Root      1 not converged, maximum delta is    0.003032426717184
 Root      2 not converged, maximum delta is    0.003577569185683
 Root      3 not converged, maximum delta is    0.017291878399299
 Root      4 not converged, maximum delta is    0.016608236913501
 Excitation Energies [eV] at current iteration:
 Root      1 :     2.658011687227642   Change is   -0.002304038130240
 Root      2 :     3.292656085455114   Change is   -0.002576827911679
 Root      3 :     3.573737811146118   Change is   -0.002529628828030
 Root      4 :     3.591329014174685   Change is   -0.002284778734094
 Iteration     3 Dimension    12 NMult     8 NNew      4
 CISAX will form     4 AO SS matrices at one time.
 NMat=     4 NSing=     0 JSym2X= 0.
 Root      1 not converged, maximum delta is    0.001321788557860
 Root      2 not converged, maximum delta is    0.004856041874941
 Root      3 not converged, maximum delta is    0.001073677214137
 Root      4 not converged, maximum delta is    0.001395988433163
 Excitation Energies [eV] at current iteration:
 Root      1 :     2.657895930513489   Change is   -0.000115756714153
 Root      2 :     3.292356079927917   Change is   -0.000300005527197
 Root      3 :     3.573670664238242   Change is   -0.000067146907876
 Root      4 :     3.591260374384110   Change is   -0.000068639790574
 Iteration     4 Dimension    16 NMult    12 NNew      4
 CISAX will form     4 AO SS matrices at one time.
 NMat=     4 NSing=     0 JSym2X= 0.
 Root      1 not converged, maximum delta is    0.000765772949558
 Root      2 not converged, maximum delta is    0.002291485517464
 Root      3 not converged, maximum delta is    0.001676462172285
 Root      4 not converged, maximum delta is    0.001792091356481
 Excitation Energies [eV] at current iteration:
 Root      1 :     2.657873740544972   Change is   -0.000022189968517
 Root      2 :     3.292274238108390   Change is   -0.000081841819527
 Root      3 :     3.573649856391353   Change is   -0.000020807846889
 Root      4 :     3.591239545789258   Change is   -0.000020828594853
 Iteration     5 Dimension    20 NMult    16 NNew      4
 CISAX will form     4 AO SS matrices at one time.
 NMat=     4 NSing=     0 JSym2X= 0.
 Root      1 not converged, maximum delta is    0.000176281952728
 Root      2 not converged, maximum delta is    0.000754137662121
 Root      3 not converged, maximum delta is    0.001670198985670
 Root      4 not converged, maximum delta is    0.001084442429596
 Excitation Energies [eV] at current iteration:
 Root      1 :     2.657872006720913   Change is   -0.000001733824059
 Root      2 :     3.292259302021741   Change is   -0.000014936086649
 Root      3 :     3.573639569981220   Change is   -0.000010286410133
 Root      4 :     3.591231814704042   Change is   -0.000007731085216
 Iteration     6 Dimension    24 NMult    20 NNew      4
 CISAX will form     4 AO SS matrices at one time.
 NMat=     4 NSing=     0 JSym2X= 0.
 Root      1 not converged, maximum delta is    0.000053820942610
 Root      2 not converged, maximum delta is    0.000698729211372
 Root      3 not converged, maximum delta is    0.000957564747465
 Root      4 not converged, maximum delta is    0.000962421621675
 Excitation Energies [eV] at current iteration:
 Root      1 :     2.657871779350915   Change is   -0.000000227369998
 Root      2 :     3.292253280867565   Change is   -0.000006021154176
 Root      3 :     3.573635123088685   Change is   -0.000004446892535
 Root      4 :     3.591227321901814   Change is   -0.000004492802229
 Iteration     7 Dimension    28 NMult    24 NNew      4
 CISAX will form     4 AO SS matrices at one time.
 NMat=     4 NSing=     0 JSym2X= 0.
 Root      1 not converged, maximum delta is    0.000019836493156
 Root      2 not converged, maximum delta is    0.000260527312927
 Root      3 not converged, maximum delta is    0.000461550788359
 Root      4 not converged, maximum delta is    0.000924197307002
 Excitation Energies [eV] at current iteration:
 Root      1 :     2.657871745197863   Change is   -0.000000034153052
 Root      2 :     3.292251943829024   Change is   -0.000001337038541
 Root      3 :     3.573633940984349   Change is   -0.000001182104336
 Root      4 :     3.591224758369191   Change is   -0.000002563532622
 Iteration     8 Dimension    32 NMult    28 NNew      4
 CISAX will form     4 AO SS matrices at one time.
 NMat=     4 NSing=     0 JSym2X= 0.
 Root      1 not converged, maximum delta is    0.000006962813440
 Root      2 not converged, maximum delta is    0.000086339053171
 Root      3 not converged, maximum delta is    0.000361223435175
 Root      4 not converged, maximum delta is    0.000986354235693
 Excitation Energies [eV] at current iteration:
 Root      1 :     2.657871740307970   Change is   -0.000000004889893
 Root      2 :     3.292251693202715   Change is   -0.000000250626309
 Root      3 :     3.573633423928082   Change is   -0.000000517056267
 Root      4 :     3.591222240868272   Change is   -0.000002517500920
 Iteration     9 Dimension    36 NMult    32 NNew      4
 CISAX will form     4 AO SS matrices at one time.
 NMat=     4 NSing=     0 JSym2X= 0.
 Root      1 not converged, maximum delta is    0.000002754332194
 Root      2 not converged, maximum delta is    0.000072660665546
 Root      3 not converged, maximum delta is    0.000111946458382
 Root      4 not converged, maximum delta is    0.000397889464754
 Excitation Energies [eV] at current iteration:
 Root      1 :     2.657871739728698   Change is   -0.000000000579272
 Root      2 :     3.292251619376027   Change is   -0.000000073826688
 Root      3 :     3.573633303243761   Change is   -0.000000120684321
 Root      4 :     3.591221258710848   Change is   -0.000000982157424
 Iteration    10 Dimension    40 NMult    36 NNew      4
 CISAX will form     4 AO SS matrices at one time.
 NMat=     4 NSing=     0 JSym2X= 0.
 Root      1 not converged, maximum delta is    0.000001939727935
 Root      2 not converged, maximum delta is    0.000044372231188
 Root      3 not converged, maximum delta is    0.000040086557919
 Root      4 not converged, maximum delta is    0.000242329167740
 Excitation Energies [eV] at current iteration:
 Root      1 :     2.657871739588997   Change is   -0.000000000139700
 Root      2 :     3.292251588066291   Change is   -0.000000031309735
 Root      3 :     3.573633263990646   Change is   -0.000000039253115
 Root      4 :     3.591220917899098   Change is   -0.000000340811750
 Iteration    11 Dimension    44 NMult    40 NNew      4
 CISAX will form     4 AO SS matrices at one time.
 NMat=     4 NSing=     0 JSym2X= 0.
 Root      1 not converged, maximum delta is    0.000001090872029
 Root      2 not converged, maximum delta is    0.000030400968736
 Root      3 not converged, maximum delta is    0.000039133972752
 Root      4 not converged, maximum delta is    0.000089904235134
 Excitation Energies [eV] at current iteration:
 Root      1 :     2.657871739536303   Change is   -0.000000000052694
 Root      2 :     3.292251578829120   Change is   -0.000000009237171
 Root      3 :     3.573633248637438   Change is   -0.000000015353208
 Root      4 :     3.591220844656618   Change is   -0.000000073242480
 Iteration    12 Dimension    48 NMult    44 NNew      4
 CISAX will form     4 AO SS matrices at one time.
 NMat=     4 NSing=     0 JSym2X= 0.
 Root      1 not converged, maximum delta is    0.000001008097157
 Root      2 not converged, maximum delta is    0.000011730523315
 Root      3 not converged, maximum delta is    0.000023742322681
 Root      4 not converged, maximum delta is    0.000029585635573
 Excitation Energies [eV] at current iteration:
 Root      1 :     2.657871739511053   Change is   -0.000000000025250
 Root      2 :     3.292251577104850   Change is   -0.000000001724270
 Root      3 :     3.573633242619200   Change is   -0.000000006018239
 Root      4 :     3.591220829151215   Change is   -0.000000015505403
 Iteration    13 Dimension    52 NMult    48 NNew      4
 CISAX will form     4 AO SS matrices at one time.
 NMat=     4 NSing=     0 JSym2X= 0.
 Root      1 not converged, maximum delta is    0.000001000318354
 Root      2 not converged, maximum delta is    0.000005751974867
 Root      3 not converged, maximum delta is    0.000010328687774
 Root      4 not converged, maximum delta is    0.000013578356385
 Excitation Energies [eV] at current iteration:
 Root      1 :     2.657871739496057   Change is   -0.000000000014997
 Root      2 :     3.292251576673193   Change is   -0.000000000431657
 Root      3 :     3.573633241040811   Change is   -0.000000001578389
 Root      4 :     3.591220825309380   Change is   -0.000000003841835
 Iteration    14 Dimension    56 NMult    52 NNew      4
 CISAX will form     4 AO SS matrices at one time.
 NMat=     4 NSing=     0 JSym2X= 0.
 Root      1 not converged, maximum delta is    0.000001000242384
 Root      2 not converged, maximum delta is    0.000003242784673
 Root      3 not converged, maximum delta is    0.000005929627911
 Root      4 not converged, maximum delta is    0.000013643866391
 Excitation Energies [eV] at current iteration:
 Root      1 :     2.657871739485985   Change is   -0.000000000010072
 Root      2 :     3.292251576501428   Change is   -0.000000000171766
 Root      3 :     3.573633240630967   Change is   -0.000000000409844
 Root      4 :     3.591220824134117   Change is   -0.000000001175263
 Iteration    15 Dimension    60 NMult    56 NNew      4
 CISAX will form     4 AO SS matrices at one time.
 NMat=     4 NSing=     0 JSym2X= 0.
 Root      1 has converged.
 Root      2 not converged, maximum delta is    0.000001505892479
 Root      3 not converged, maximum delta is    0.000002995632409
 Root      4 not converged, maximum delta is    0.000008820043141
 Excitation Energies [eV] at current iteration:
 Root      1 :     2.657871739478764   Change is   -0.000000000007220
 Root      2 :     3.292251576433332   Change is   -0.000000000068095
 Root      3 :     3.573633240494759   Change is   -0.000000000136208
 Root      4 :     3.591220823643260   Change is   -0.000000000490858
 Iteration    16 Dimension    63 NMult    60 NNew      3
 CISAX will form     3 AO SS matrices at one time.
 NMat=     3 NSing=     0 JSym2X= 0.
 Root      1 has converged.
 Root      2 not converged, maximum delta is    0.000001002054524
 Root      3 not converged, maximum delta is    0.000001272163990
 Root      4 not converged, maximum delta is    0.000004492873368
 Excitation Energies [eV] at current iteration:
 Root      1 :     2.657871739478674   Change is   -0.000000000000091
 Root      2 :     3.292251576400699   Change is   -0.000000000032634
 Root      3 :     3.573633240438833   Change is   -0.000000000055926
 Root      4 :     3.591220823425453   Change is   -0.000000000217807
 Iteration    17 Dimension    66 NMult    63 NNew      3
 CISAX will form     3 AO SS matrices at one time.
 NMat=     3 NSing=     0 JSym2X= 0.
 Root      1 has converged.
 Root      2 not converged, maximum delta is    0.000001014120855
 Root      3 has converged.
 Root      4 not converged, maximum delta is    0.000002063430455
 Excitation Energies [eV] at current iteration:
 Root      1 :     2.657871739478577   Change is   -0.000000000000097
 Root      2 :     3.292251576382705   Change is   -0.000000000017993
 Root      3 :     3.573633240412773   Change is   -0.000000000026060
 Root      4 :     3.591220823322277   Change is   -0.000000000103176
 Iteration    18 Dimension    68 NMult    66 NNew      2
 CISAX will form     2 AO SS matrices at one time.
 NMat=     2 NSing=     0 JSym2X= 0.
 Root      1 has converged.
 Root      2 not converged, maximum delta is    0.000001004669156
 Root      3 not converged, maximum delta is    0.000001000003687
 Root      4 not converged, maximum delta is    0.000001066973918
 Excitation Energies [eV] at current iteration:
 Root      1 :     2.657871739478541   Change is   -0.000000000000036
 Root      2 :     3.292251576366289   Change is   -0.000000000016416
 Root      3 :     3.573633240412604   Change is   -0.000000000000169
 Root      4 :     3.591220823265070   Change is   -0.000000000057207
 Iteration    19 Dimension    71 NMult    68 NNew      3
 CISAX will form     3 AO SS matrices at one time.
 NMat=     3 NSing=     0 JSym2X= 0.
 Root      1 has converged.
 Root      2 not converged, maximum delta is    0.000001004669156
 Root      3 not converged, maximum delta is    0.000001000456660
 Root      4 not converged, maximum delta is    0.000001000735812
 Excitation Energies [eV] at current iteration:
 Root      1 :     2.657871739478492   Change is   -0.000000000000048
 Root      2 :     3.292251576355540   Change is   -0.000000000010749
 Root      3 :     3.573633240397541   Change is   -0.000000000015063
 Root      4 :     3.591220823229379   Change is   -0.000000000035691
 Iteration    20 Dimension    74 NMult    71 NNew      3
 CISAX will form     3 AO SS matrices at one time.
 NMat=     3 NSing=     0 JSym2X= 0.
 Root      1 has converged.
 Root      2 has converged.
 Root      3 not converged, maximum delta is    0.000001002115601
 Root      4 has converged.
 Excitation Energies [eV] at current iteration:
 Root      1 :     2.657871739478474   Change is   -0.000000000000018
 Root      2 :     3.292251576350314   Change is   -0.000000000005226
 Root      3 :     3.573633240384919   Change is   -0.000000000012622
 Root      4 :     3.591220823205301   Change is   -0.000000000024078
 Iteration    21 Dimension    75 NMult    74 NNew      1
 CISAX will form     1 AO SS matrices at one time.
 NMat=     1 NSing=     0 JSym2X= 0.
 Root      1 has converged.
 Root      2 has converged.
 Root      3 not converged, maximum delta is    0.000001008809683
 Root      4 not converged, maximum delta is    0.000001006295453
 Excitation Energies [eV] at current iteration:
 Root      1 :     2.657871739478450   Change is   -0.000000000000024
 Root      2 :     3.292251576350199   Change is   -0.000000000000115
 Root      3 :     3.573633240364593   Change is   -0.000000000020326
 Root      4 :     3.591220823203785   Change is   -0.000000000001517
 Iteration    22 Dimension    77 NMult    75 NNew      2
 CISAX will form     2 AO SS matrices at one time.
 NMat=     2 NSing=     0 JSym2X= 0.
 Root      1 has converged.
 Root      2 not converged, maximum delta is    0.000001000457016
 Root      3 not converged, maximum delta is    0.000001001992893
 Root      4 has converged.
 Excitation Energies [eV] at current iteration:
 Root      1 :     2.657871739478384   Change is   -0.000000000000066
 Root      2 :     3.292251576349945   Change is   -0.000000000000254
 Root      3 :     3.573633240350593   Change is   -0.000000000014000
 Root      4 :     3.591220823185712   Change is   -0.000000000018072
 Iteration    23 Dimension    79 NMult    77 NNew      2
 CISAX will form     2 AO SS matrices at one time.
 NMat=     2 NSing=     0 JSym2X= 0.
 Root      1 has converged.
 Root      2 has converged.
 Root      3 not converged, maximum delta is    0.000001000033853
 Root      4 has converged.
 Excitation Energies [eV] at current iteration:
 Root      1 :     2.657871739478365   Change is   -0.000000000000018
 Root      2 :     3.292251576347299   Change is   -0.000000000002646
 Root      3 :     3.573633240344678   Change is   -0.000000000005915
 Root      4 :     3.591220823185622   Change is   -0.000000000000091
 Iteration    24 Dimension    80 NMult    79 NNew      1
 CISAX will form     1 AO SS matrices at one time.
 NMat=     1 NSing=     0 JSym2X= 0.
 Root      1 has converged.
 Root      2 has converged.
 Root      3 has converged.
 Root      4 has converged.
 Excitation Energies [eV] at current iteration:
 Root      1 :     2.657871739478341   Change is   -0.000000000000024
 Root      2 :     3.292251576347220   Change is   -0.000000000000079
 Root      3 :     3.573633240342068   Change is   -0.000000000002610
 Root      4 :     3.591220823185598   Change is   -0.000000000000024
 Convergence achieved on expansion vectors.
 ***********************************************************************
 Excited states from <AA,BB:AA,BB> singles matrix:
 ***********************************************************************
 
 1PDM for each excited state written to RWF  633
 Ground to excited state transition densities written to RWF  633
 Ground to excited state transition electric dipole moments (Au):
       state          X           Y           Z        Dip. S.      Osc.
         1        -0.0000     -0.0000     -0.0000      0.0000      0.0000
         2        -0.0000     -0.0000     -0.0000      0.0000      0.0000
         3        -0.0000     -0.0000     -0.0000      0.0000      0.0000
         4        -0.0000     -0.0000     -0.0000      0.0000      0.0000
 Ground to excited state transition velocity dipole moments (Au):
       state          X           Y           Z        Dip. S.      Osc.
         1         0.0000      0.0000      0.0000      0.0000      0.0000
         2         0.0000      0.0000      0.0000      0.0000      0.0000
         3         0.0000      0.0000      0.0000      0.0000      0.0000
         4         0.0000      0.0000      0.0000      0.0000      0.0000
 Ground to excited state transition magnetic dipole moments (Au):
       state          X           Y           Z
         1         0.0000      0.0000      0.0000
         2         0.0000      0.0000      0.0000
         3         0.0000      0.0000      0.0000
         4         0.0000      0.0000      0.0000
 Ground to excited state transition velocity quadrupole moments (Au):
       state          XX          YY          ZZ          XY          XZ          YZ
         1         0.0000      0.0000      0.0000      0.0000      0.0000      0.0000
         2         0.0000      0.0000      0.0000      0.0000      0.0000      0.0000
         3         0.0000      0.0000      0.0000      0.0000      0.0000      0.0000
         4         0.0000      0.0000      0.0000      0.0000      0.0000      0.0000
 <0|del|b> * <b|rxdel|0> + <0|del|b> * <b|delr+rdel|0>
 Rotatory Strengths (R) in cgs (10**-40 erg-esu-cm/Gauss)
       state          XX          YY          ZZ    R(velocity)    E-M Angle
         1         0.0000      0.0000      0.0000      0.0000       90.00
         2         0.0000      0.0000      0.0000      0.0000       90.00
         3         0.0000      0.0000      0.0000      0.0000       90.00
         4         0.0000      0.0000      0.0000      0.0000       90.00
 1/2[<0|r|b>*<b|rxdel|0> + (<0|rxdel|b>*<b|r|0>)*]
 Rotatory Strengths (R) in cgs (10**-40 erg-esu-cm/Gauss)
       state          XX          YY          ZZ     R(length)
         1         0.0000      0.0000      0.0000      0.0000
         2         0.0000      0.0000      0.0000      0.0000
         3         0.0000      0.0000      0.0000      0.0000
         4         0.0000      0.0000      0.0000      0.0000
  1/2[<0|del|b>*<b|r|0> + (<0|r|b>*<b|del|0>)*] (Au)
       state          X           Y           Z        Dip. S.   Osc.(frdel)
         1        -0.0000     -0.0000     -0.0000      0.0000      0.0000
         2        -0.0000     -0.0000     -0.0000      0.0000      0.0000
         3        -0.0000     -0.0000     -0.0000      0.0000      0.0000
         4        -0.0000     -0.0000     -0.0000      0.0000      0.0000

 Excitation energies and oscillator strengths:
 
 Excited State   1:      Triplet-A      2.6579 eV  466.48 nm  f=0.0000  <S**2>=2.000
     133 ->144        -0.12371
     137 ->144         0.26210
     142 ->144        -0.11784
     143 ->144         0.57789
     143 ->148         0.12964
 This state for optimization and/or second-order correction.
 Total Energy, E(CIS/TDA) =  -2043.90897826    
 Copying the excited state density for this state as the 1-particle RhoCI density.
 
 Excited State   2:      Triplet-A      3.2923 eV  376.59 nm  f=0.0000  <S**2>=2.000
     132 ->144         0.15623
     142 ->144         0.63518
     142 ->148         0.12447
     143 ->144         0.14070
 
 Excited State   3:      Triplet-A      3.5736 eV  346.94 nm  f=0.0000  <S**2>=2.000
     140 ->146         0.26581
     140 ->147         0.26427
     141 ->144         0.15098
     141 ->145        -0.20439
     141 ->146        -0.32015
     141 ->147         0.14125
     142 ->151        -0.11740
     143 ->146         0.16139
     143 ->150        -0.14472
 
 Excited State   4:      Triplet-A      3.5912 eV  345.24 nm  f=0.0000  <S**2>=2.000
     140 ->144        -0.10901
     140 ->145         0.18983
     140 ->146         0.32628
     140 ->147        -0.13268
     141 ->145         0.19774
     141 ->146        -0.13778
     141 ->147        -0.35473
     141 ->148        -0.10151
     142 ->150         0.13250
     143 ->147         0.11642
     143 ->151         0.13445
[...]
 Alpha  occ. eigenvalues --   -0.87253  -0.86851  -0.85467  -0.84162  -0.83851
 Alpha  occ. eigenvalues --   -0.83496  -0.82550  -0.82385  -0.80690  -0.79214
 Alpha  occ. eigenvalues --   -0.79118  -0.78963  -0.75639  -0.72648  -0.71751
 Alpha  occ. eigenvalues --   -0.70271  -0.69471  -0.69328  -0.67742  -0.67537
 Alpha  occ. eigenvalues --   -0.66895  -0.66074  -0.64899  -0.64273  -0.63888
 Alpha  occ. eigenvalues --   -0.61922  -0.61036  -0.59279  -0.58946  -0.58385
 Alpha  occ. eigenvalues --   -0.58099  -0.56874  -0.56311  -0.55690  -0.54557
 Alpha  occ. eigenvalues --   -0.53790  -0.53355  -0.52462  -0.52265  -0.52199
 Alpha  occ. eigenvalues --   -0.52093  -0.51948  -0.51255  -0.50748  -0.50530
 Alpha  occ. eigenvalues --   -0.50331  -0.50091  -0.49769  -0.49601  -0.48801
 Alpha  occ. eigenvalues --   -0.48660  -0.48518  -0.48228  -0.47860  -0.47788
 Alpha  occ. eigenvalues --   -0.45533  -0.44883  -0.44457  -0.44146  -0.42780
 Alpha  occ. eigenvalues --   -0.42738  -0.42644  -0.42440  -0.42380  -0.42333
 Alpha  occ. eigenvalues --   -0.41670  -0.40527  -0.40307  -0.39967  -0.39778
 Alpha  occ. eigenvalues --   -0.39624  -0.39354  -0.38695  -0.37731  -0.36158
 Alpha  occ. eigenvalues --   -0.35188  -0.34736  -0.34529  -0.34198  -0.33496
 Alpha  occ. eigenvalues --   -0.32967  -0.31629  -0.31616  -0.30923  -0.27553
 Alpha  occ. eigenvalues --   -0.26909  -0.26328  -0.25226
 Alpha virt. eigenvalues --   -0.02545   0.01909   0.02055   0.02313   0.02346
 Alpha virt. eigenvalues --    0.03689   0.05168   0.06119   0.07985   0.08408
 Alpha virt. eigenvalues --    0.09430   0.09957   0.12417   0.13213   0.15183
 Alpha virt. eigenvalues --    0.15600   0.16017   0.16514   0.16988   0.17320
 Alpha virt. eigenvalues --    0.17749   0.18926   0.18975   0.19911   0.20049
 Alpha virt. eigenvalues --    0.20423   0.20744   0.21047   0.21631   0.21897
 Alpha virt. eigenvalues --    0.22474   0.22633   0.22703   0.23232   0.23331
 Alpha virt. eigenvalues --    0.24077   0.24320   0.24804   0.25034   0.25551
 Alpha virt. eigenvalues --    0.26015   0.26229   0.26556   0.26926   0.27176
 Alpha virt. eigenvalues --    0.27413   0.27970   0.28030   0.28727   0.29886
 Alpha virt. eigenvalues --    0.30704   0.31301   0.31514   0.32024   0.32149
 Alpha virt. eigenvalues --    0.32534   0.33389   0.34642   0.34731   0.34885
 Alpha virt. eigenvalues --    0.35394   0.35947   0.36276   0.36379   0.37262
 Alpha virt. eigenvalues --    0.38155   0.38956   0.39692   0.40341   0.40695
 Alpha virt. eigenvalues --    0.41345   0.41644   0.42490   0.43564   0.44083
 Alpha virt. eigenvalues --    0.44841   0.45121   0.45538   0.46894   0.48009
 Alpha virt. eigenvalues --    0.48233   0.49598   0.49693   0.51423   0.52018
 Alpha virt. eigenvalues --    0.53681   0.54156   0.55632   0.56040   0.57093
 Alpha virt. eigenvalues --    0.57505   0.57880   0.58174   0.58419   0.58632
 Alpha virt. eigenvalues --    0.59020   0.59529   0.59895   0.60347   0.60963
 Alpha virt. eigenvalues --    0.61054   0.61189   0.61285   0.61468   0.61820
 Alpha virt. eigenvalues --    0.62256   0.62642   0.62830   0.62996   0.63263
 Alpha virt. eigenvalues --    0.63640   0.63970   0.64185   0.64317   0.64527
 Alpha virt. eigenvalues --    0.64803   0.65213   0.65516   0.65726   0.65895
 Alpha virt. eigenvalues --    0.66079   0.66329   0.66610   0.66741   0.67013
 Alpha virt. eigenvalues --    0.67136   0.67228   0.67304   0.67698   0.67865
 Alpha virt. eigenvalues --    0.67994   0.68451   0.68569   0.68845   0.69114
 Alpha virt. eigenvalues --    0.69710   0.70031   0.70373   0.70504   0.70600
 Alpha virt. eigenvalues --    0.70867   0.71637   0.71924   0.72804   0.73595
 Alpha virt. eigenvalues --    0.74960   0.75315   0.75914   0.76513   0.77023
 Alpha virt. eigenvalues --    0.77435   0.78134   0.78726   0.79970   0.80139
 Alpha virt. eigenvalues --    0.80681   0.82155   0.82563   0.84232   0.85134
 Alpha virt. eigenvalues --    0.85501   0.86023   0.86320   0.86591   0.86808
 Alpha virt. eigenvalues --    0.86932   0.87146   0.87460   0.87595   0.88365
 Alpha virt. eigenvalues --    0.88643   0.88888   0.89213   0.89666   0.90210
 Alpha virt. eigenvalues --    0.90353   0.90602   0.90773   0.91261   0.91772
 Alpha virt. eigenvalues --    0.91937   0.92342   0.92713   0.93376   0.93558
 Alpha virt. eigenvalues --    0.94138   0.94618   0.95213   0.95756   0.95781
 Alpha virt. eigenvalues --    0.96058   0.96860   0.96932   0.97343   0.97883
 Alpha virt. eigenvalues --    0.98209   0.98976   0.99634   1.00009   1.00791
 Alpha virt. eigenvalues --    1.01077   1.01568   1.02629   1.03250   1.04217
 Alpha virt. eigenvalues --    1.04338   1.04715   1.05436   1.05838   1.06285
 Alpha virt. eigenvalues --    1.06480   1.07166   1.07703   1.08049   1.09164
 Alpha virt. eigenvalues --    1.09739   1.10673   1.11287   1.11413   1.12253
 Alpha virt. eigenvalues --    1.12812   1.13571   1.14025   1.15551   1.15668
 Alpha virt. eigenvalues --    1.15796   1.16522   1.17357   1.18033   1.18781
 Alpha virt. eigenvalues --    1.19572   1.20486   1.21494   1.22006   1.22175
 Alpha virt. eigenvalues --    1.22988   1.23941   1.24704   1.24952   1.25255
 Alpha virt. eigenvalues --    1.25350   1.25793   1.26367   1.26788   1.27298
 Alpha virt. eigenvalues --    1.27778   1.28852   1.29218   1.30057   1.30798
 Alpha virt. eigenvalues --    1.31264   1.31690   1.33175   1.33589   1.33732
 Alpha virt. eigenvalues --    1.34176   1.34730   1.35101   1.36048   1.37011
 Alpha virt. eigenvalues --    1.38183   1.39357   1.39758   1.40901   1.41212
 Alpha virt. eigenvalues --    1.41794   1.42228   1.42727   1.42803   1.42984
 Alpha virt. eigenvalues --    1.43725   1.44140   1.44660   1.44794   1.45069
 Alpha virt. eigenvalues --    1.45726   1.46029   1.46435   1.46582   1.46885
 Alpha virt. eigenvalues --    1.47056   1.47162   1.47562   1.47606   1.47790
 Alpha virt. eigenvalues --    1.48018   1.48915   1.49670   1.49996   1.50621
 Alpha virt. eigenvalues --    1.51978   1.53610   1.53981   1.56307   1.58057
 Alpha virt. eigenvalues --    1.61167   1.63060   1.64391   1.65390   1.66318
 Alpha virt. eigenvalues --    1.66825   1.67569   1.68017   1.69275   1.70656
 Alpha virt. eigenvalues --    1.73901   1.75483   1.75875   1.77950   1.80053
 Alpha virt. eigenvalues --    1.80455   1.80639   1.81314   1.81859   1.82188
 Alpha virt. eigenvalues --    1.82401   1.82482   1.83376   1.84281   1.85410
 Alpha virt. eigenvalues --    1.85606   1.86135   1.86547   1.87086   1.87548
 Alpha virt. eigenvalues --    1.87815   1.88375   1.88987   1.89914   1.90236
 Alpha virt. eigenvalues --    1.90820   1.91241   1.91993   1.92612   1.93728
 Alpha virt. eigenvalues --    1.94483   1.94988   1.95439   1.95590   1.95984
 Alpha virt. eigenvalues --    1.97140   1.97417   1.97750   1.98023   1.98407
 Alpha virt. eigenvalues --    1.98718   1.99046   1.99379   1.99704   1.99876
 Alpha virt. eigenvalues --    2.00837   2.01061   2.01722   2.02034   2.02169
 Alpha virt. eigenvalues --    2.02891   2.03212   2.03705   2.03797   2.04566
 Alpha virt. eigenvalues --    2.04774   2.04873   2.05180   2.05476   2.05735
 Alpha virt. eigenvalues --    2.06501   2.06705   2.07014   2.07914   2.08169
 Alpha virt. eigenvalues --    2.08659   2.09020   2.09446   2.09887   2.10089
 Alpha virt. eigenvalues --    2.11243   2.11842   2.12688   2.14431   2.14917
 Alpha virt. eigenvalues --    2.15430   2.16254   2.16449   2.17081   2.18702
 Alpha virt. eigenvalues --    2.19686   2.20284   2.20629   2.22039   2.22995
 Alpha virt. eigenvalues --    2.24402   2.25553   2.27194   2.27565   2.28135
 Alpha virt. eigenvalues --    2.28433   2.29327   2.30382   2.31589   2.32167
 Alpha virt. eigenvalues --    2.32532   2.33277   2.33816   2.34237   2.34605
 Alpha virt. eigenvalues --    2.35324   2.35864   2.36660   2.37428   2.38639
 Alpha virt. eigenvalues --    2.40246   2.40710   2.40796   2.41206   2.41585
 Alpha virt. eigenvalues --    2.41754   2.42659   2.43119   2.43454   2.44050
 Alpha virt. eigenvalues --    2.44874   2.44907   2.45156   2.45346   2.45703
 Alpha virt. eigenvalues --    2.45804   2.45961   2.46165   2.46968   2.47217
 Alpha virt. eigenvalues --    2.47865   2.48922   2.50331   2.50568   2.50847
 Alpha virt. eigenvalues --    2.51275   2.51468   2.52733   2.52776   2.53699
 Alpha virt. eigenvalues --    2.54025   2.54435   2.55095   2.55132   2.55870
 Alpha virt. eigenvalues --    2.56836   2.57152   2.57709   2.57989   2.58656
 Alpha virt. eigenvalues --    2.59235   2.59396   2.59902   2.60251   2.61334
 Alpha virt. eigenvalues --    2.61492   2.61869   2.62346   2.63035   2.63722
 Alpha virt. eigenvalues --    2.64178   2.64381   2.64499   2.64645   2.65285
 Alpha virt. eigenvalues --    2.65457   2.66623   2.67379   2.67778   2.68193
 Alpha virt. eigenvalues --    2.69319   2.69576   2.70246   2.70834   2.72068
 Alpha virt. eigenvalues --    2.73009   2.73520   2.74457   2.74987   2.75619
 Alpha virt. eigenvalues --    2.76027   2.77032   2.78052   2.78412   2.79241
 Alpha virt. eigenvalues --    2.80566   2.80977   2.81041   2.81679   2.82617
 Alpha virt. eigenvalues --    2.83003   2.83723   2.84662   2.84886   2.87921
 Alpha virt. eigenvalues --    2.88569   2.89668   2.90528   2.91858   2.94162
 Alpha virt. eigenvalues --    2.95936   2.96451   2.97413   2.97756   2.98465
 Alpha virt. eigenvalues --    2.98616   3.00487   3.01331   3.02633   3.03261
 Alpha virt. eigenvalues --    3.05045   3.07985   3.10846   3.15426   3.17561
 Alpha virt. eigenvalues --    3.17654   3.21871   3.21990   3.24207   3.25019
 Alpha virt. eigenvalues --    3.25852   3.28728   3.29263   3.30320   3.30536
 Alpha virt. eigenvalues --    3.31413   3.31912   3.32073   3.32165   3.32378
 Alpha virt. eigenvalues --    3.32848   3.34140   3.36686   3.38223   3.38575
 Alpha virt. eigenvalues --    3.38911   3.43952   3.44395   3.44846   3.45007
 Alpha virt. eigenvalues --    3.45855   3.49352   3.51265   3.52975   3.54470
 Alpha virt. eigenvalues --    3.55088   3.56901   3.58600   3.59293   3.74409
 Alpha virt. eigenvalues --    3.89228   3.89527   3.90140   3.96255   3.97429
 Alpha virt. eigenvalues --    3.97683   4.14147   4.17437   4.19061   4.19488
 Alpha virt. eigenvalues --    4.20201   4.20978   4.21530   4.21782   4.22076
 Alpha virt. eigenvalues --    4.22459   4.23278   4.25953   4.26715   4.27607
 Alpha virt. eigenvalues --    4.27959   4.28266   4.29480   4.31137   4.32348
 Alpha virt. eigenvalues --    4.34265   4.42647   4.46761   4.47965   4.49511
 Alpha virt. eigenvalues --    4.50530   4.51006   4.54541   4.56084   4.57052
 Alpha virt. eigenvalues --    4.59837   4.60198   4.60979   4.62052   4.62535
 Alpha virt. eigenvalues --    4.85608   4.87219   4.92095   4.93651   5.00207
 Alpha virt. eigenvalues --    5.03349
          Condensed to atoms (all electrons):
 Mulliken charges:
               1
     1  C    0.174340
     2  C    0.236579
     3  C   -0.137434
     4  C   -0.229669
     5  C   -0.111196
     6  C   -0.124982
     7  S    1.179136
     8  O   -0.572258
     9  H    0.198048
    10  H    0.184988
    11  H    0.165631
    12  N   -0.737323
    13  C    0.301564
    14  C    0.302211
    15  C   -0.121990
    16  C    0.024318
    17  C   -0.143067
    18  C    0.028976
    19  C   -0.141499
    20  H    0.125853
    21  C   -0.162553
    22  C   -0.147240
    23  H    0.121646
    24  C   -0.160771
    25  C   -0.147164
    26  H    0.134940
    27  H    0.133923
    28  C   -0.149364
    29  H    0.127520
    30  H    0.136038
    31  H    0.129358
    32  H    0.129395
    33  N   -0.698873
    34  C    0.307779
    35  C    0.299322
    36  C   -0.158755
    37  C    0.029937
    38  C   -0.118833
    39  C    0.029259
    40  C   -0.145184
    41  H    0.131763
    42  C   -0.163046
    43  C   -0.141095
    44  H    0.128331
    45  C   -0.166992
    46  C   -0.149594
    47  H    0.133659
    48  H    0.136741
    49  C   -0.146815
    50  H    0.134865
    51  H    0.134916
    52  H    0.130178
    53  H    0.128869
    54  O   -0.567279
    55  C   -0.196961
    56  C   -0.119935
    57  C   -0.110624
    58  C   -0.133901
    59  H    0.177560
    60  C   -0.130918
    61  H    0.173612
    62  C   -0.120927
    63  H    0.147912
    64  H    0.149622
    65  H    0.147453
 Sum of Mulliken charges =  -0.00000
 Mulliken charges with hydrogens summed into heavy atoms:
               1
     1  C    0.174340
     2  C    0.236579
     3  C    0.060614
     4  C   -0.229669
     5  C    0.073792
     6  C    0.040649
     7  S    1.179136
     8  O   -0.572258
    12  N   -0.737323
    13  C    0.301564
    14  C    0.302211
    15  C    0.003863
    16  C    0.024318
    17  C   -0.021421
    18  C    0.028976
    19  C   -0.006559
    21  C   -0.028630
    22  C   -0.019720
    24  C   -0.024733
    25  C   -0.017806
    28  C   -0.019969
    33  N   -0.698873
    34  C    0.307779
    35  C    0.299322
    36  C   -0.026992
    37  C    0.029937
    38  C    0.009498
    39  C    0.029259
    40  C   -0.011525
    42  C   -0.026306
    43  C   -0.006229
    45  C   -0.032076
    46  C   -0.019417
    49  C   -0.017945
    54  O   -0.567279
    55  C   -0.196961
    56  C    0.057625
    57  C    0.062988
    58  C    0.014011
    60  C    0.018705
    62  C    0.026526
 Electronic spatial extent (au):  <R**2>=          19024.6403
 Charge=              0.0000 electrons
 Dipole moment (field-independent basis, Debye):
    X=             -2.8527    Y=              1.5381    Z=              4.5204  Tot=              5.5622
 Quadrupole moment (field-independent basis, Debye-Ang):
   XX=           -236.7247   YY=           -221.6464   ZZ=           -241.5927
   XY=             15.7623   XZ=             25.3740   YZ=              3.2210
 Traceless Quadrupole moment (field-independent basis, Debye-Ang):
   XX=             -3.4035   YY=             11.6748   ZZ=             -8.2714
   XY=             15.7623   XZ=             25.3740   YZ=              3.2210
 Octapole moment (field-independent basis, Debye-Ang**2):
  XXX=           -142.4914  YYY=             25.3899  ZZZ=             48.8280  XYY=            -24.8907
  XXY=             66.2729  XXZ=            129.9726  XZZ=             -7.9662  YZZ=              7.9377
  YYZ=             10.4666  XYZ=            -29.1509
 Hexadecapole moment (field-independent basis, Debye-Ang**3):
 XXXX=         -15158.1604 YYYY=          -6364.9525 ZZZZ=          -3994.6321 XXXY=            450.7408
 XXXZ=            507.7883 YYYX=             51.0295 YYYZ=            108.8529 ZZZX=            109.0402
 ZZZY=            125.1255 XXYY=          -3510.2144 XXZZ=          -3030.6923 YYZZ=          -1813.7409
 XXYZ=           -109.1290 YYXZ=            176.5117 ZZXY=             -1.2156
 N-N= 4.837838871816D+03 E-N=-1.443817003368D+04  KE= 2.027279866463D+03
 No NMR shielding tensors so no spin-rotation constants.
 Leave Link  601 at Tue Aug 20 01:08:55 2024, MaxMem=  2147483648 cpu:               6.0 elap:               0.5
 (Enter /apps/gaussian/g16/l9999.exe)
 Electronic transition elements 
                 1             2             3             4 
      1  -0.204391D+04 -0.204389D+04 -0.204387D+04 -0.204387D+04
      2   0.000000D+00  0.000000D+00  0.000000D+00  0.000000D+00
      3   0.000000D+00  0.000000D+00  0.000000D+00  0.000000D+00
      4   0.000000D+00  0.000000D+00  0.000000D+00  0.000000D+00
      5   0.000000D+00  0.000000D+00  0.000000D+00  0.000000D+00
      6   0.000000D+00  0.000000D+00  0.000000D+00  0.000000D+00
      7   0.000000D+00  0.000000D+00  0.000000D+00  0.000000D+00
      8   0.000000D+00  0.000000D+00  0.000000D+00  0.000000D+00
      9   0.000000D+00  0.000000D+00  0.000000D+00  0.000000D+00
     10   0.000000D+00  0.000000D+00  0.000000D+00  0.000000D+00
     11   0.000000D+00  0.000000D+00  0.000000D+00  0.000000D+00
     12   0.000000D+00  0.000000D+00  0.000000D+00  0.000000D+00
     13   0.000000D+00  0.000000D+00  0.000000D+00  0.000000D+00
     14   0.000000D+00  0.000000D+00  0.000000D+00  0.000000D+00
     15   0.000000D+00  0.000000D+00  0.000000D+00  0.000000D+00
     16   0.000000D+00  0.000000D+00  0.000000D+00  0.000000D+00

 Test job not archived.
 1\1\GINC-PMLP-HPCCLSAP02\FOpt\RwB97XD TDA-FC\6-31G(d,p)\C36H24N2O2S1\W
 ILLIAM1\20-Aug-2024\0\\#p opt wB97XD/6-31G** iop(3/107=0136000000,3/10
 8=0136000000) TDA=(triplets, nstates=4, root=1)\\Tuning input file gen
 erated by xtune with parameters: w01360\\0,1\C,-0.3048271552,-1.430255
 0767,-0.234008865\C,0.3329374859,-0.2933325912,-0.9154093365\C,1.65558
 42012,-0.3519857234,-1.2509683914\C,2.4238839315,-1.504489465,-0.90957
 27826\C,1.7960685089,-2.6718529317,-0.3368671894\C,0.4714426623,-2.654
 2480751,-0.0508165308\S,4.16903612,-1.4252821253,-1.0681083568\O,4.492
 1078335,-0.6219505714,-2.251468212\H,2.1081206026,0.4332833913,-1.8456
 520187\H,2.4009204878,-3.5555279601,-0.1688392252\H,-0.0129558857,-3.5
 18682281,0.3896313545\N,-0.453688233,0.8196999754,-1.2479545716\C,-1.7
 59739365,0.785298764,-1.7570040489\C,-0.1295333361,2.1527987388,-0.966
 6427169\C,-2.4785163289,-0.2993947262,-2.2572198261\C,-2.2843915916,2.
 093221225,-1.7702870092\C,1.0342603049,2.6819990586,-0.4053229581\C,-1
 .2448639443,2.9672478931,-1.2619338911\C,-3.7702073133,-0.0598221688,-
 2.7134013213\H,-2.0451154657,-1.2917261735,-2.2890551613\C,-3.57729303
 69,2.3140553704,-2.2459539578\C,1.0687250073,4.0518930092,-0.164872070
 3\H,1.8809283591,2.0523948114,-0.1576048937\C,-1.1848626458,4.33855818
 48,-1.015951971\C,-4.319247658,1.2302787405,-2.7044756546\H,-4.3574975
 05,-0.8899250521,-3.090855802\H,-3.9940342776,3.3157944416,-2.26275191
 19\C,-0.0228770801,4.8761260977,-0.4714128543\H,1.9637734597,4.4877563
 024,0.2665371347\H,-2.0360947652,4.9738391002,-1.2377255018\H,-5.32740
 19887,1.3851205111,-3.0733969808\H,0.0391267371,5.9415691124,-0.277880
 6794\N,-1.4365627069,-1.2320174766,0.5544370177\C,-2.5731528892,-2.048
 1939549,0.5296399455\C,-1.6917901954,-0.164059119,1.4285704499\C,-2.80
 03649927,-3.1949747051,-0.2308023755\C,-3.5717783632,-1.484373125,1.35
 26163884\C,-0.818765844,0.8311911735,1.8628441674\C,-3.0086820534,-0.2
 710389295,1.9229063898\C,-4.046713648,-3.8048450284,-0.1139909323\H,-2
 .041209225,-3.590588208,-0.895506027\C,-4.8143209495,-2.1034393861,1.4
 45156333\C,-1.3207394947,1.7836397784,2.7446951373\H,0.2131417465,0.86
 00354238,1.5359197505\C,-3.4869367311,0.6821332722,2.8167370306\C,-5.0
 407070866,-3.2709782284,0.7161117835\H,-4.2520950683,-4.7039789149,-0.
 6847294344\H,-5.5978853026,-1.6799165304,2.0644955938\C,-2.6401138959,
 1.7185719195,3.2099541336\H,-0.6708394252,2.5840685872,3.0801708047\H,
 -4.4967488402,0.6162627471,3.207934659\H,-6.003780398,-3.7654624758,0.
 7815645838\H,-3.0011425213,2.4732477438,3.9001383794\O,4.7049998483,-2
 .7780746079,-0.8915684835\C,4.6533929928,-0.4543400895,0.3619156872\C,
 4.7495017921,0.9328883761,0.2413043333\C,4.8513460457,-1.0906378659,1.
 5875291783\C,5.0404970067,1.6926004505,1.37205965\H,4.6220629238,1.394
 7947726,-0.7317071552\C,5.1448548241,-0.3210773508,2.7099991993\H,4.78
 93015431,-2.1715167143,1.6472790809\C,5.2333282715,1.0678238251,2.6046
 441414\H,5.1281059717,2.7709287112,1.2885602384\H,5.3088947659,-0.8053
 485769,3.6668306089\H,5.4614767732,1.6629436996,3.4827739438\\Version=
 ES64L-G16RevC.01\State=1-A\HF=-2044.0051796\RMSD=7.976e-09\RMSF=1.308e
 -06\Dipole=-2.7762574,1.0926709,2.0159126\PG=C01 [X(C36H24N2O2S1)]\\@


 NOTHING WILL BE ATTEMPTED IF ALL POSSIBLE OBJECTIONS
 MUST FIRST BE OVERCOME.

                               -- THE GOLDEN PRINCIPLE,
                    PAUL DICKSON'S "THE OFFICIAL RULES"
 Job cpu time:      16 days  6 hours  4 minutes 11.0 seconds.
 Elapsed time:       2 days 10 hours 27 minutes 45.1 seconds.
 File lengths (MBytes):  RWF=   2465 Int=      0 D2E=      0 Chk=    126 Scr=      1
 Normal termination of Gaussian 16 at Tue Aug 20 01:08:56 2024.
