 Entering Gaussian System, Link 0=g16
 Initial command:
 /apps/gaussian/g16/l1.exe "/local/Gau-3049637.inp" -scrdir="/local/"
 Entering Link 1 = /apps/gaussian/g16/l1.exe PID=   3049638.
  
 Copyright (c) 1988-2019, Gaussian, Inc.  All Rights Reserved.
  
 This is part of the Gaussian(R) 16 program.  It is based on
 the Gaussian(R) 09 system (copyright 2009, Gaussian, Inc.),
 the Gaussian(R) 03 system (copyright 2003, Gaussian, Inc.),
 the Gaussian(R) 98 system (copyright 1998, Gaussian, Inc.),
 the Gaussian(R) 94 system (copyright 1995, Gaussian, Inc.),
 the Gaussian 92(TM) system (copyright 1992, Gaussian, Inc.),
 the Gaussian 90(TM) system (copyright 1990, Gaussian, Inc.),
 the Gaussian 88(TM) system (copyright 1988, Gaussian, Inc.),
 the Gaussian 86(TM) system (copyright 1986, Carnegie Mellon
 University), and the Gaussian 82(TM) system (copyright 1983,
 Carnegie Mellon University). Gaussian is a federally registered
 trademark of Gaussian, Inc.
  
 This software contains proprietary and confidential information,
 including trade secrets, belonging to Gaussian, Inc.
  
 This software is provided under written license and may be
 used, copied, transmitted, or stored only in accord with that
 written license.
  
 The following legend is applicable only to US Government
 contracts under FAR:
  
                    RESTRICTED RIGHTS LEGEND
  
 Use, reproduction and disclosure by the US Government is
 subject to restrictions as set forth in subparagraphs (a)
 and (c) of the Commercial Computer Software - Restricted
 Rights clause in FAR 52.227-19.
  
 Gaussian, Inc.
 340 Quinnipiac St., Bldg. 40, Wallingford CT 06492
  
  
 ---------------------------------------------------------------
 Warning -- This program may not be used in any manner that
 competes with the business of Gaussian, Inc. or will provide
 assistance to any competitor of Gaussian, Inc.  The licensee
 of this program is prohibited from giving any competitor of
 Gaussian, Inc. access to this program.  By using this program,
 the user acknowledges that Gaussian, Inc. is engaged in the
 business of creating and licensing software in the field of
 computational chemistry and represents and warrants to the
 licensee that it is not a competitor of Gaussian, Inc. and that
 it will not use this program in any manner prohibited above.
 ---------------------------------------------------------------
  

 Cite this work as:
 Gaussian 16, Revision C.01,
 M. J. Frisch, G. W. Trucks, H. B. Schlegel, G. E. Scuseria, 
 M. A. Robb, J. R. Cheeseman, G. Scalmani, V. Barone, 
 G. A. Petersson, H. Nakatsuji, X. Li, M. Caricato, A. V. Marenich, 
 J. Bloino, B. G. Janesko, R. Gomperts, B. Mennucci, H. P. Hratchian, 
 J. V. Ortiz, A. F. Izmaylov, J. L. Sonnenberg, D. Williams-Young, 
 F. Ding, F. Lipparini, F. Egidi, J. Goings, B. Peng, A. Petrone, 
 T. Henderson, D. Ranasinghe, V. G. Zakrzewski, J. Gao, N. Rega, 
 G. Zheng, W. Liang, M. Hada, M. Ehara, K. Toyota, R. Fukuda, 
 J. Hasegawa, M. Ishida, T. Nakajima, Y. Honda, O. Kitao, H. Nakai, 
 T. Vreven, K. Throssell, J. A. Montgomery, Jr., J. E. Peralta, 
 F. Ogliaro, M. J. Bearpark, J. J. Heyd, E. N. Brothers, K. N. Kudin, 
 V. N. Staroverov, T. A. Keith, R. Kobayashi, J. Normand, 
 K. Raghavachari, A. P. Rendell, J. C. Burant, S. S. Iyengar, 
 J. Tomasi, M. Cossi, J. M. Millam, M. Klene, C. Adamo, R. Cammi, 
 J. W. Ochterski, R. L. Martin, K. Morokuma, O. Farkas, 
 J. B. Foresman, and D. J. Fox, Gaussian, Inc., Wallingford CT, 2019.
 
 ******************************************
 Gaussian 16:  ES64L-G16RevC.01  3-Jul-2019
                 2-Oct-2024 
 ******************************************
 %chk=YZ-IX-137.chk
 %nprocshared=16
 Will use up to   16 processors via shared memory.
 %mem=16GB
 ----------------------------------------------------------------------
 #p opt=Restart wb97xd/6-31G** iop(3/107=0105700000,3/108=0105700000) T
 DA=(triplets, nstates=4, root=2)
 ----------------------------------------------------------------------
 1/18=20,19=15,26=3,35=1/3(2);
 2/9=110/2;
 99//99;
 2/9=110/2;
 3/5=1,6=6,7=101,11=9,25=1,30=1,71=1,74=-58,107=105700000,108=105700000/1,2,3,8;
 4/5=5,16=3,69=1/1;
 5/5=2,38=5/2;
 8/6=1,10=2,107=2,108=4/1;
 9/8=2,15=2,41=4,42=1,48=3,49=4/14;
 10/5=4,28=2/2;
 7/12=6,13=5,14=2/1,2,3,16;
 1/18=20,19=15,26=3/3(-8);
 2/9=110/2;
 6/7=2,8=2,9=2,10=2/1;
 99/9=10/99;
 Leave Link    1 at Wed Oct  2 20:03:19 2024, MaxMem=  2147483648 cpu:               0.9 elap:               0.1
 (Enter /apps/gaussian/g16/l103.exe)

 GradGradGradGradGradGradGradGradGradGradGradGradGradGradGradGradGradGrad
 Berny optimization.
 Restoring state from the checkpoint file "YZ-IX-137.chk".
 ONIOM results not found on unit 2.
 Title:  Tuning input file generated by xtune with parameters: w01057
 Route:  #p opt wb97xd/6-31G** iop(3/107=0105700000,3/108=0105700000) TDA=(triple
 ts, nstates=4, root=2)
 FncErr=1.00D-07 GrdErr=1.00D-06 EigMax=2.50D+02 EigMin=1.00D-04
 Using GEDIIS/GDIIS optimizer.
 FormGI is forming the generalized inverse of G from B-inverse, IUseBI=4.
 Internal  Forces:  Max     0.000010253 RMS     0.000001320
 Search for a local minimum.
 Step number  55 out of a maximum of  930
 All quantities printed in internal units (Hartrees-Bohrs-Radians)
 RMS Force = .13201D-05 SwitMx=.10000D-02 MixMth= 2
 Mixed Optimization -- En-DIIS/RFO-DIIS
 Swapping is turned off.
 Update second derivatives using D2CorX and points   23   24   25   26   27
                                                     30   29   32   33   34
                                                     35   28   36   37   38
                                                     39   40   41   42   43
                                                     44   45   46   47   48
                                                     49   50   51   52   53
                                                     54   55
 DE= -1.33D-08 DEPred=-1.90D-08 R= 6.98D-01
 Trust test= 6.98D-01 RLast= 1.70D-03 DXMaxT set to 8.41D-02
 ITU=  0  0  0  0  0  1  1  1  0 -1  1 -1 -1  1  1 -1  1 -1 -1  0
 ITU=  0  0  0  0  0  0  0  1  1 -1 -1  0 -1  0  1 -1  1 -1  1  1
 ITU=  1  1  1  1  1  0  1  1 -1  0  1 -1  1 -1  0
     Eigenvalues ---    0.00221   0.00226   0.00227   0.00230   0.00230
     Eigenvalues ---    0.00230   0.00231   0.00231   0.00233   0.00233
     Eigenvalues ---    0.00235   0.00235   0.00240   0.00242   0.00250
     Eigenvalues ---    0.00253   0.00265   0.00287   0.00292   0.00335
     Eigenvalues ---    0.00421   0.00447   0.00470   0.00519   0.00543
     Eigenvalues ---    0.00643   0.00700   0.00715   0.00976   0.01123
     Eigenvalues ---    0.01240   0.01336   0.01390   0.01418   0.01424
     Eigenvalues ---    0.01455   0.01511   0.01562   0.01604   0.01653
     Eigenvalues ---    0.01726   0.01767   0.01771   0.01840   0.01855
     Eigenvalues ---    0.01897   0.01902   0.01920   0.01938   0.01949
     Eigenvalues ---    0.01965   0.01966   0.01978   0.01997   0.02020
     Eigenvalues ---    0.02027   0.02036   0.02052   0.02061   0.02067
     Eigenvalues ---    0.02076   0.02079   0.02086   0.02095   0.02099
     Eigenvalues ---    0.02105   0.02107   0.02116   0.02123   0.02135
     Eigenvalues ---    0.02136   0.02137   0.02140   0.02145   0.02148
     Eigenvalues ---    0.02151   0.02156   0.02157   0.02160   0.02163
     Eigenvalues ---    0.02164   0.02167   0.02168   0.02171   0.02178
     Eigenvalues ---    0.02185   0.02191   0.02198   0.02216   0.02224
     Eigenvalues ---    0.02231   0.02257   0.02288   0.02310   0.02410
     Eigenvalues ---    0.02420   0.02509   0.02662   0.02820   0.03334
     Eigenvalues ---    0.03741   0.04680   0.04935   0.04947   0.04975
     Eigenvalues ---    0.04987   0.05008   0.05047   0.05068   0.05096
     Eigenvalues ---    0.05114   0.05126   0.05149   0.05210   0.05235
     Eigenvalues ---    0.05252   0.05258   0.05262   0.05269   0.05274
     Eigenvalues ---    0.05279   0.05286   0.05316   0.05342   0.05345
     Eigenvalues ---    0.05353   0.05363   0.05369   0.05372   0.05372
     Eigenvalues ---    0.05381   0.05385   0.05389   0.05391   0.05416
     Eigenvalues ---    0.05466   0.05483   0.05484   0.05489   0.05491
     Eigenvalues ---    0.05492   0.05494   0.05498   0.05499   0.05506
     Eigenvalues ---    0.05516   0.05521   0.05542   0.05570   0.05586
     Eigenvalues ---    0.05589   0.05599   0.05600   0.05677   0.05743
     Eigenvalues ---    0.06275   0.06941   0.10063   0.10378   0.12353
     Eigenvalues ---    0.13606   0.14596   0.14691   0.14706   0.14762
     Eigenvalues ---    0.14811   0.15111   0.15179   0.15214   0.15332
     Eigenvalues ---    0.15461   0.15521   0.15555   0.15613   0.15681
     Eigenvalues ---    0.15711   0.15785   0.15861   0.15875   0.15901
     Eigenvalues ---    0.15924   0.15953   0.15977   0.15982   0.15991
     Eigenvalues ---    0.15993   0.15995   0.15997   0.15998   0.15999
     Eigenvalues ---    0.15999   0.15999   0.15999   0.15999   0.16000
     Eigenvalues ---    0.16000   0.16000   0.16000   0.16000   0.16000
     Eigenvalues ---    0.16000   0.16000   0.16000   0.16000   0.16000
     Eigenvalues ---    0.16000   0.16000   0.16000   0.16000   0.16000
     Eigenvalues ---    0.16000   0.16000   0.16000   0.16000   0.16000
     Eigenvalues ---    0.16000   0.16000   0.16000   0.16000   0.16000
     Eigenvalues ---    0.16000   0.16001   0.16001   0.16001   0.16002
     Eigenvalues ---    0.16002   0.16004   0.16004   0.16005   0.16011
     Eigenvalues ---    0.16011   0.16014   0.16020   0.16024   0.16026
     Eigenvalues ---    0.16027   0.16042   0.16047   0.16070   0.16076
     Eigenvalues ---    0.16082   0.16129   0.16148   0.16209   0.16245
     Eigenvalues ---    0.16296   0.16337   0.16420   0.16497   0.16636
     Eigenvalues ---    0.16775   0.17294   0.18516   0.19709   0.21931
     Eigenvalues ---    0.21995   0.22218   0.22335   0.22387   0.22457
     Eigenvalues ---    0.22461   0.22534   0.22590   0.22800   0.23119
     Eigenvalues ---    0.23348   0.23423   0.23510   0.23512   0.23547
     Eigenvalues ---    0.23575   0.23650   0.23755   0.23810   0.24122
     Eigenvalues ---    0.24339   0.24392   0.24575   0.24641   0.24744
     Eigenvalues ---    0.24753   0.24893   0.24934   0.24986   0.25075
     Eigenvalues ---    0.25094   0.25127   0.25206   0.25333   0.25395
     Eigenvalues ---    0.25843   0.26088   0.26668   0.26704   0.27444
     Eigenvalues ---    0.27855   0.27960   0.27994   0.28006   0.28030
     Eigenvalues ---    0.28036   0.28041   0.28060   0.28080   0.28083
     Eigenvalues ---    0.28102   0.28193   0.28498   0.28524   0.28563
     Eigenvalues ---    0.28573   0.28578   0.28602   0.28619   0.28649
     Eigenvalues ---    0.28742   0.28799   0.28998   0.29282   0.29840
     Eigenvalues ---    0.30893   0.31972   0.34161   0.34186   0.34193
     Eigenvalues ---    0.34194   0.34198   0.34203   0.34204   0.34205
     Eigenvalues ---    0.34207   0.34208   0.34212   0.34216   0.34255
     Eigenvalues ---    0.34285   0.34291   0.34293   0.34295   0.34305
     Eigenvalues ---    0.34308   0.34310   0.34313   0.34319   0.34320
     Eigenvalues ---    0.34326   0.34326   0.34331   0.34333   0.34336
     Eigenvalues ---    0.34339   0.34341   0.34345   0.34348   0.34350
     Eigenvalues ---    0.34351   0.34354   0.34356   0.34357   0.34362
     Eigenvalues ---    0.34365   0.34367   0.34379   0.34398   0.34405
     Eigenvalues ---    0.34405   0.34410   0.34427   0.34430   0.34442
     Eigenvalues ---    0.34454   0.34457   0.34471   0.34500   0.34521
     Eigenvalues ---    0.34549   0.34958   0.35196   0.35339   0.35350
     Eigenvalues ---    0.35355   0.35365   0.35394   0.35433   0.35440
     Eigenvalues ---    0.35469   0.35482   0.35497   0.35521   0.35551
     Eigenvalues ---    0.35559   0.35600   0.35611   0.35623   0.35630
     Eigenvalues ---    0.35647   0.35705   0.35721   0.35770   0.35841
     Eigenvalues ---    0.35875   0.36009   0.36129   0.36311   0.37038
     Eigenvalues ---    0.37366   0.37557   0.38060   0.38931   0.39836
     Eigenvalues ---    0.40118   0.40330   0.40887   0.41383   0.41808
     Eigenvalues ---    0.42233   0.42271   0.42291   0.42399   0.42465
     Eigenvalues ---    0.42649   0.42697   0.42878   0.43030   0.43071
     Eigenvalues ---    0.43274   0.43454   0.43516   0.43741   0.44112
     Eigenvalues ---    0.44246   0.44338   0.44495   0.44613   0.44764
     Eigenvalues ---    0.45149   0.45481   0.45610   0.45693   0.45778
     Eigenvalues ---    0.45994   0.46175   0.46204   0.46361   0.46427
     Eigenvalues ---    0.46481   0.46618   0.46705   0.46714   0.46788
     Eigenvalues ---    0.46812   0.46844   0.46907   0.47044   0.47159
     Eigenvalues ---    0.47413   0.47607   0.48043   0.48245   0.52271
     Eigenvalues ---    0.58661   0.69065   0.84413   0.88998   0.89859
 En-DIIS/RFO-DIIS/Sim-DIIS IScMMF=       -3 using points:    55   54   53   52   51   50   49   48   47   46
 RFO step:  Lambda=-6.88244641D-09.
 NNeg= 0 NGDIIS=10 SimSw=  2.50D-01 Rises=F DC=  0.00D+00 SmlDif=  1.00D-05
 NRisDI= 0 DoIntr=F SqrtH=F CThrHd= 10.0 CDAdj=  3.0
 RMS Error=  0.4123743643D-04 NUsed=10 OKEnD=F EnDIS=F
 InvSVX:  RCond= 2.12D-07 Info=           0 Equed=N FErr=  1.95D-14 BErr=  8.68D-17
 DidBck=F Rises=F RFO-DIIS coefs:    0.85071    0.31939   -0.15092   -0.08572    0.08578
                  RFO-DIIS coefs:    0.00066   -0.02075   -0.02155    0.01958    0.00282
 Iteration  1 RMS(Cart)=  0.00028294 RMS(Int)=  0.00000007
 Iteration  2 RMS(Cart)=  0.00000002 RMS(Int)=  0.00000007
 ITry= 1 IFail=0 DXMaxC= 1.14D-03 DCOld= 1.00D+10 DXMaxT= 8.41D-02 DXLimC= 3.00D+00 Rises=F
 Variable       Old X    -DE/DX   Delta X   Delta X   Delta X     New X
                                 (Linear)    (Quad)   (Total)
    R1        2.63407   0.00001   0.00000   0.00001   0.00001   2.63408
    R2        2.67692  -0.00000   0.00000  -0.00000   0.00000   2.67692
    R3        2.61467  -0.00000   0.00000  -0.00000  -0.00000   2.61467
    R4        2.62692   0.00000   0.00000   0.00000   0.00000   2.62692
    R5        2.66661  -0.00000   0.00001  -0.00001  -0.00001   2.66660
    R6        2.64067  -0.00001   0.00000  -0.00001  -0.00001   2.64066
    R7        2.63151   0.00000  -0.00000   0.00000  -0.00000   2.63151
    R8        2.04379  -0.00000   0.00001  -0.00001  -0.00000   2.04379
    R9        2.75359  -0.00000  -0.00000  -0.00000  -0.00000   2.75359
   R10        2.61232  -0.00000   0.00000  -0.00001  -0.00001   2.61231
   R11        2.63850   0.00000  -0.00000   0.00001   0.00001   2.63851
   R12        2.04541   0.00000  -0.00000   0.00000   0.00000   2.04541
   R13        2.61573  -0.00000   0.00000  -0.00001  -0.00001   2.61573
   R14        2.65455   0.00000   0.00000  -0.00000   0.00000   2.65455
   R15        2.04388  -0.00000  -0.00000   0.00000  -0.00000   2.04388
   R16        2.66815  -0.00000  -0.00000   0.00000  -0.00000   2.66815
   R17        2.04981   0.00000   0.00000  -0.00000   0.00000   2.04981
   R18        2.65114   0.00000   0.00000  -0.00000   0.00000   2.65114
   R19        2.04467   0.00000  -0.00000   0.00000   0.00000   2.04467
   R20        2.66648   0.00000  -0.00001   0.00001   0.00001   2.66649
   R21        2.05010   0.00000   0.00000  -0.00000  -0.00000   2.05010
   R22        2.90284   0.00000  -0.00000   0.00000   0.00000   2.90284
   R23        2.90424  -0.00000  -0.00000  -0.00000  -0.00000   2.90424
   R24        2.73504  -0.00000  -0.00002   0.00002  -0.00000   2.73504
   R25        2.75592   0.00000  -0.00001   0.00001   0.00000   2.75593
   R26        2.68117  -0.00001  -0.00002   0.00001  -0.00001   2.68116
   R27        2.58812  -0.00001   0.00002  -0.00003  -0.00001   2.58811
   R28        2.67443   0.00001   0.00001   0.00000   0.00002   2.67445
   R29        2.69093   0.00000  -0.00000  -0.00000  -0.00000   2.69093
   R30        2.04758  -0.00000   0.00000  -0.00000  -0.00000   2.04758
   R31        2.70012   0.00000  -0.00000   0.00001   0.00001   2.70013
   R32        3.30477  -0.00000   0.00000  -0.00001  -0.00001   3.30476
   R33        2.57934  -0.00000   0.00001  -0.00002  -0.00001   2.57933
   R34        2.04843  -0.00000   0.00000  -0.00000  -0.00000   2.04842
   R35        2.69026   0.00000   0.00000   0.00000   0.00001   2.69026
   R36        2.92145  -0.00000  -0.00000  -0.00000  -0.00000   2.92145
   R37        2.92282  -0.00000  -0.00000   0.00000  -0.00000   2.92281
   R38        2.90849  -0.00000   0.00000  -0.00000  -0.00000   2.90849
   R39        2.90863   0.00000   0.00001  -0.00001  -0.00000   2.90863
   R40        2.92201  -0.00000  -0.00000   0.00000  -0.00000   2.92201
   R41        2.92169  -0.00000  -0.00000   0.00000  -0.00000   2.92169
   R42        2.63864   0.00000   0.00000  -0.00000   0.00000   2.63864
   R43        2.63864  -0.00000   0.00000  -0.00001  -0.00000   2.63864
   R44        3.40676  -0.00000   0.00000  -0.00001  -0.00000   3.40676
   R45        2.63506  -0.00000   0.00000  -0.00001  -0.00000   2.63506
   R46        2.04855  -0.00000   0.00000  -0.00000  -0.00000   2.04855
   R47        2.63270   0.00000   0.00000  -0.00000   0.00000   2.63270
   R48        2.04829  -0.00000   0.00000  -0.00000  -0.00000   2.04829
   R49        2.63784  -0.00000  -0.00000   0.00000   0.00000   2.63784
   R50        2.05052   0.00000   0.00000  -0.00000   0.00000   2.05052
   R51        2.63946  -0.00000   0.00000  -0.00001  -0.00000   2.63946
   R52        2.04998   0.00000  -0.00000   0.00000  -0.00000   2.04998
   R53        2.05023  -0.00000   0.00000  -0.00000  -0.00000   2.05023
   R54        2.77416   0.00000   0.00000   0.00000   0.00000   2.77417
   R55        2.77569  -0.00000   0.00000   0.00000   0.00000   2.77570
   R56        2.06876  -0.00000  -0.00000  -0.00000  -0.00000   2.06876
   R57        2.06623   0.00000   0.00000   0.00000   0.00000   2.06623
   R58        2.06642   0.00000   0.00000  -0.00000   0.00000   2.06642
   R59        2.06892   0.00000  -0.00000   0.00000   0.00000   2.06892
   R60        2.06641  -0.00000  -0.00000   0.00000  -0.00000   2.06641
   R61        2.06615   0.00000  -0.00000   0.00000   0.00000   2.06615
   R62        2.06806  -0.00000  -0.00000  -0.00000  -0.00000   2.06805
   R63        2.06674   0.00000  -0.00000   0.00000   0.00000   2.06675
   R64        2.06700  -0.00000   0.00000  -0.00000  -0.00000   2.06700
   R65        2.06798   0.00000  -0.00000  -0.00000  -0.00000   2.06798
   R66        2.06744   0.00000  -0.00000   0.00000   0.00000   2.06744
   R67        2.06704   0.00000  -0.00000   0.00000   0.00000   2.06704
   R68        2.06641  -0.00000   0.00000   0.00000   0.00000   2.06641
   R69        2.06900  -0.00000  -0.00000   0.00000  -0.00000   2.06900
   R70        2.06641  -0.00000   0.00000  -0.00000  -0.00000   2.06641
   R71        2.06895  -0.00000  -0.00000   0.00000  -0.00000   2.06895
   R72        2.06627   0.00000   0.00000  -0.00000   0.00000   2.06628
   R73        2.06720   0.00000   0.00000   0.00000   0.00000   2.06720
   R74        2.63270  -0.00000  -0.00001   0.00000  -0.00001   2.63269
   R75        2.63104  -0.00000   0.00001  -0.00002  -0.00001   2.63103
   R76        2.63503   0.00000  -0.00000   0.00000   0.00000   2.63503
   R77        2.66410   0.00000  -0.00000   0.00000  -0.00000   2.66410
   R78        2.63052  -0.00000  -0.00001   0.00001  -0.00000   2.63052
   R79        2.67223   0.00000  -0.00000   0.00000   0.00000   2.67224
   R80        2.62209  -0.00000  -0.00000   0.00000  -0.00000   2.62208
   R81        2.04800  -0.00000   0.00000  -0.00000  -0.00000   2.04800
   R82        2.73901   0.00000   0.00000  -0.00000   0.00000   2.73901
   R83        2.64432   0.00000   0.00000   0.00000   0.00000   2.64432
   R84        2.63300  -0.00000   0.00000  -0.00001  -0.00000   2.63300
   R85        2.04911  -0.00000   0.00000  -0.00000  -0.00000   2.04911
   R86        2.63622   0.00000   0.00000   0.00000   0.00000   2.63622
   R87        2.67258   0.00000  -0.00000   0.00000   0.00000   2.67258
   R88        2.05081   0.00000   0.00000   0.00000   0.00000   2.05081
   R89        2.63605   0.00000   0.00000  -0.00000  -0.00000   2.63605
   R90        2.04762   0.00000   0.00000  -0.00000  -0.00000   2.04762
   R91        2.66505   0.00000  -0.00000   0.00001   0.00000   2.66505
   R92        2.04675  -0.00000   0.00000  -0.00000  -0.00000   2.04675
   R93        2.64497  -0.00000   0.00000  -0.00000  -0.00000   2.64496
   R94        2.05180  -0.00000   0.00000  -0.00000  -0.00000   2.05180
   R95        2.90751  -0.00000   0.00000  -0.00000   0.00000   2.90751
   R96        2.91077   0.00000   0.00000   0.00000   0.00000   2.91077
   R97        2.92058  -0.00000   0.00000  -0.00001  -0.00000   2.92058
   R98        2.92144   0.00000   0.00000  -0.00000   0.00000   2.92144
   R99        2.90867   0.00000  -0.00000   0.00001   0.00000   2.90867
   R100       2.92084   0.00000  -0.00000   0.00000   0.00000   2.92084
   R101       2.92083  -0.00000   0.00000  -0.00000  -0.00000   2.92083
   R102       2.90930  -0.00000  -0.00000   0.00000  -0.00000   2.90930
   R103       2.06633  -0.00000  -0.00000   0.00000  -0.00000   2.06633
   R104       2.07013  -0.00000   0.00000  -0.00000  -0.00000   2.07013
   R105       2.06725   0.00000   0.00000  -0.00000   0.00000   2.06725
   R106       2.06603  -0.00000   0.00000  -0.00000  -0.00000   2.06603
   R107       2.06723  -0.00000  -0.00000  -0.00000  -0.00000   2.06723
   R108       2.07030  -0.00000   0.00000  -0.00000  -0.00000   2.07030
   R109       2.06817   0.00000  -0.00000   0.00000   0.00000   2.06817
   R110       2.06812   0.00000  -0.00000   0.00000  -0.00000   2.06812
   R111       2.06792  -0.00000   0.00000  -0.00000  -0.00000   2.06792
   R112       2.06998  -0.00000   0.00000  -0.00000  -0.00000   2.06998
   R113       2.06673   0.00000  -0.00000   0.00000   0.00000   2.06673
   R114       2.06801   0.00000  -0.00000   0.00000   0.00000   2.06801
   R115       2.06648  -0.00000   0.00000  -0.00000  -0.00000   2.06648
   R116       2.07008  -0.00000   0.00000  -0.00000  -0.00000   2.07008
   R117       2.06707  -0.00000  -0.00000  -0.00000  -0.00000   2.06707
   R118       2.06845  -0.00000  -0.00000  -0.00000  -0.00000   2.06845
   R119       2.06776   0.00000   0.00000  -0.00000   0.00000   2.06776
   R120       2.06784  -0.00000   0.00000  -0.00000   0.00000   2.06784
   R121       2.63290  -0.00001   0.00000  -0.00001  -0.00001   2.63288
   R122       2.64375  -0.00001   0.00000  -0.00001  -0.00001   2.64374
   R123       2.63422  -0.00000  -0.00001   0.00000  -0.00000   2.63422
   R124       2.67467   0.00000   0.00000   0.00000   0.00000   2.67468
   R125       2.62725  -0.00000   0.00000  -0.00001  -0.00000   2.62725
   R126       2.66465   0.00000  -0.00001   0.00001  -0.00000   2.66465
   R127       2.63226   0.00000   0.00000   0.00000   0.00000   2.63227
   R128       2.04696   0.00000   0.00000  -0.00000  -0.00000   2.04696
   R129       2.74508   0.00000   0.00000  -0.00000   0.00000   2.74508
   R130       2.62663   0.00000  -0.00001   0.00000  -0.00000   2.62663
   R131       2.63534   0.00000  -0.00000   0.00000   0.00000   2.63535
   R132       2.04610  -0.00000   0.00000  -0.00000  -0.00000   2.04610
   R133       2.62890   0.00000  -0.00000   0.00000  -0.00000   2.62890
   R134       2.65992   0.00000  -0.00000   0.00000   0.00000   2.65992
   R135       2.04616   0.00000   0.00000  -0.00000   0.00000   2.04616
   R136       2.65211   0.00000   0.00001  -0.00000   0.00000   2.65211
   R137       2.05077   0.00000  -0.00000   0.00000   0.00000   2.05077
   R138       2.65682  -0.00000  -0.00000   0.00000  -0.00000   2.65682
   R139       2.04563   0.00000   0.00000  -0.00000   0.00000   2.04563
   R140       2.65230   0.00000   0.00000   0.00000   0.00000   2.65231
   R141       2.05096   0.00000   0.00000   0.00000   0.00000   2.05096
   R142       2.90765  -0.00000  -0.00000  -0.00000  -0.00001   2.90764
   R143       2.90766  -0.00000  -0.00000  -0.00000  -0.00000   2.90766
   R144       2.92086  -0.00000   0.00000  -0.00001  -0.00000   2.92086
   R145       2.92166   0.00000   0.00000  -0.00000   0.00000   2.92166
   R146       2.90914   0.00000  -0.00000   0.00000   0.00000   2.90914
   R147       2.90911  -0.00000  -0.00000   0.00000  -0.00000   2.90911
   R148       2.92159   0.00000   0.00000  -0.00000   0.00000   2.92159
   R149       2.92043   0.00000   0.00000  -0.00000  -0.00000   2.92043
   R150       2.06929  -0.00000  -0.00000  -0.00000  -0.00000   2.06929
   R151       2.06622  -0.00000  -0.00000  -0.00000  -0.00000   2.06622
   R152       2.06655  -0.00000  -0.00000  -0.00000  -0.00000   2.06655
   R153       2.06703   0.00000   0.00000   0.00000   0.00000   2.06703
   R154       2.06642   0.00000  -0.00000   0.00000   0.00000   2.06642
   R155       2.06947   0.00000  -0.00000   0.00000   0.00000   2.06947
   R156       2.06852   0.00000   0.00000  -0.00000  -0.00000   2.06852
   R157       2.06778  -0.00000   0.00000  -0.00000  -0.00000   2.06778
   R158       2.06730   0.00000  -0.00000   0.00000   0.00000   2.06730
   R159       2.06800   0.00000   0.00000   0.00000   0.00000   2.06800
   R160       2.06812   0.00000   0.00000  -0.00000   0.00000   2.06812
   R161       2.06748  -0.00000   0.00000  -0.00000  -0.00000   2.06748
   R162       2.06654  -0.00000  -0.00000   0.00000  -0.00000   2.06654
   R163       2.06966  -0.00000  -0.00000  -0.00000  -0.00000   2.06966
   R164       2.06693   0.00000   0.00000  -0.00000  -0.00000   2.06693
   R165       2.06657  -0.00000   0.00000   0.00000   0.00000   2.06657
   R166       2.06716  -0.00000  -0.00000  -0.00000  -0.00000   2.06716
   R167       2.06957   0.00000   0.00000  -0.00000   0.00000   2.06957
    A1        2.11643  -0.00000   0.00001  -0.00001   0.00000   2.11643
    A2        2.25244   0.00001  -0.00000   0.00002   0.00001   2.25245
    A3        1.91346  -0.00000  -0.00000  -0.00001  -0.00001   1.91345
    A4        2.11966   0.00000  -0.00000   0.00001   0.00001   2.11967
    A5        2.24943  -0.00000  -0.00000  -0.00000  -0.00001   2.24943
    A6        1.91209  -0.00000   0.00001  -0.00000   0.00000   1.91209
    A7        2.05559  -0.00000  -0.00001   0.00000  -0.00000   2.05558
    A8        2.11693   0.00000   0.00001  -0.00001  -0.00000   2.11692
    A9        2.11026   0.00000  -0.00000   0.00001   0.00001   2.11027
   A10        1.85665   0.00000   0.00001   0.00000   0.00001   1.85666
   A11        2.08928   0.00000  -0.00000   0.00000   0.00000   2.08928
   A12        2.33721  -0.00000  -0.00000  -0.00001  -0.00001   2.33720
   A13        2.05332  -0.00000   0.00000   0.00000   0.00000   2.05332
   A14        2.11632  -0.00000  -0.00001  -0.00000  -0.00001   2.11630
   A15        2.11339   0.00000   0.00001   0.00000   0.00001   2.11340
   A16        1.85471  -0.00000  -0.00001   0.00000  -0.00001   1.85470
   A17        2.08905   0.00000   0.00000  -0.00000  -0.00000   2.08904
   A18        2.33862   0.00000   0.00001  -0.00000   0.00000   2.33863
   A19        2.13788  -0.00000   0.00000  -0.00000   0.00000   2.13788
   A20        2.05035  -0.00000  -0.00000  -0.00000  -0.00000   2.05035
   A21        2.09492   0.00000  -0.00000   0.00001   0.00000   2.09493
   A22        2.10000   0.00000  -0.00000   0.00000   0.00000   2.10000
   A23        2.08531   0.00000   0.00000   0.00001   0.00001   2.08532
   A24        2.09788  -0.00000   0.00000  -0.00002  -0.00001   2.09786
   A25        2.13810  -0.00000  -0.00000  -0.00001  -0.00001   2.13809
   A26        2.05010   0.00000  -0.00000   0.00001   0.00001   2.05011
   A27        2.09497   0.00000   0.00000   0.00000   0.00000   2.09497
   A28        2.10014   0.00000   0.00000   0.00000   0.00000   2.10014
   A29        2.08499   0.00000  -0.00000   0.00001   0.00000   2.08499
   A30        2.09798  -0.00000   0.00000  -0.00001  -0.00000   2.09798
   A31        2.06650  -0.00000   0.00000  -0.00000   0.00000   2.06650
   A32        2.13699   0.00001   0.00000   0.00001   0.00001   2.13700
   A33        2.07966  -0.00001  -0.00000  -0.00001  -0.00001   2.07965
   A34        2.06451   0.00000   0.00000   0.00000   0.00001   2.06451
   A35        2.13870   0.00001   0.00001   0.00000   0.00001   2.13871
   A36        2.07990  -0.00001  -0.00001  -0.00000  -0.00001   2.07989
   A37        2.05097   0.00000  -0.00001   0.00000  -0.00000   2.05096
   A38        2.04884   0.00000  -0.00003   0.00001  -0.00001   2.04883
   A39        2.08331  -0.00000  -0.00003   0.00001  -0.00002   2.08330
   A40        2.12345  -0.00000   0.00001  -0.00001   0.00000   2.12345
   A41        2.04244  -0.00000  -0.00002  -0.00001  -0.00002   2.04241
   A42        2.11722   0.00000   0.00001   0.00002   0.00002   2.11724
   A43        2.08459   0.00000   0.00000  -0.00000  -0.00000   2.08458
   A44        2.10572  -0.00000  -0.00000   0.00001   0.00000   2.10573
   A45        2.09132  -0.00000   0.00000  -0.00000  -0.00000   2.09132
   A46        2.10034   0.00000  -0.00001   0.00002   0.00000   2.10034
   A47        2.07602   0.00000   0.00001  -0.00000   0.00000   2.07602
   A48        2.09193  -0.00000   0.00000  -0.00000   0.00000   2.09193
   A49        2.10429  -0.00000   0.00001  -0.00002  -0.00001   2.10428
   A50        2.08719   0.00000   0.00000   0.00000   0.00001   2.08719
   A51        2.09125   0.00000  -0.00001   0.00002   0.00000   2.09126
   A52        2.10110   0.00000   0.00000   0.00000   0.00001   2.10111
   A53        2.07803  -0.00000   0.00000  -0.00002  -0.00002   2.07801
   A54        2.10403   0.00000  -0.00001   0.00002   0.00001   2.10404
   A55        1.91223  -0.00000  -0.00000  -0.00001  -0.00001   1.91222
   A56        1.90030  -0.00000  -0.00000  -0.00000  -0.00000   1.90029
   A57        1.96242   0.00000   0.00001   0.00001   0.00001   1.96244
   A58        1.91229   0.00000  -0.00000   0.00000  -0.00000   1.91229
   A59        1.88803  -0.00000  -0.00000  -0.00000  -0.00000   1.88803
   A60        1.88806  -0.00000  -0.00000   0.00000   0.00000   1.88806
   A61        1.96118   0.00000   0.00001  -0.00001   0.00001   1.96119
   A62        1.90438  -0.00000  -0.00001   0.00000  -0.00001   1.90437
   A63        1.90903  -0.00000  -0.00000   0.00000   0.00000   1.90903
   A64        1.88818  -0.00000   0.00001   0.00000   0.00001   1.88819
   A65        1.88819   0.00000  -0.00000   0.00000   0.00000   1.88819
   A66        1.91240  -0.00000  -0.00001  -0.00000  -0.00001   1.91239
   A67        1.88741   0.00000  -0.00000   0.00001   0.00001   1.88742
   A68        2.20279   0.00000  -0.00001   0.00003   0.00002   2.20281
   A69        2.19257  -0.00000   0.00001  -0.00004  -0.00003   2.19254
   A70        2.11274   0.00000   0.00000   0.00000   0.00000   2.11274
   A71        2.08259  -0.00000   0.00000  -0.00001  -0.00000   2.08259
   A72        2.08538   0.00000  -0.00000   0.00000   0.00000   2.08538
   A73        2.08109  -0.00000  -0.00000   0.00000   0.00000   2.08109
   A74        2.08462   0.00000  -0.00000   0.00000   0.00000   2.08463
   A75        2.11717  -0.00000   0.00000  -0.00000  -0.00000   2.11716
   A76        2.08106  -0.00000  -0.00000  -0.00000  -0.00000   2.08106
   A77        2.08897  -0.00000  -0.00000   0.00000  -0.00000   2.08897
   A78        2.11304   0.00000   0.00000  -0.00000   0.00000   2.11305
   A79        2.09733  -0.00000   0.00000  -0.00000  -0.00000   2.09732
   A80        2.08961   0.00000   0.00000   0.00000   0.00000   2.08961
   A81        2.09618   0.00000  -0.00000   0.00000  -0.00000   2.09618
   A82        2.09803   0.00000  -0.00000   0.00000   0.00000   2.09804
   A83        2.08914  -0.00000   0.00000  -0.00000  -0.00000   2.08914
   A84        2.09599  -0.00000  -0.00000  -0.00000  -0.00000   2.09599
   A85        2.09606  -0.00000   0.00000  -0.00000  -0.00000   2.09606
   A86        2.09391   0.00000  -0.00000   0.00000   0.00000   2.09391
   A87        2.09316  -0.00000  -0.00000  -0.00000  -0.00000   2.09316
   A88        1.92242  -0.00000   0.00000  -0.00000  -0.00000   1.92242
   A89        1.95631  -0.00000   0.00000   0.00000   0.00000   1.95631
   A90        1.93505  -0.00000  -0.00000  -0.00000  -0.00000   1.93504
   A91        1.87728   0.00000  -0.00000   0.00000   0.00000   1.87729
   A92        1.88728   0.00000  -0.00000  -0.00000  -0.00000   1.88728
   A93        1.88309   0.00000  -0.00000   0.00000  -0.00000   1.88308
   A94        1.92370   0.00000   0.00000   0.00000   0.00000   1.92370
   A95        1.93297   0.00000  -0.00000   0.00000   0.00000   1.93297
   A96        1.95298  -0.00000  -0.00000  -0.00000  -0.00001   1.95298
   A97        1.89043  -0.00000   0.00000  -0.00000  -0.00000   1.89043
   A98        1.87915   0.00000   0.00000  -0.00000   0.00000   1.87915
   A99        1.88248   0.00000   0.00000   0.00000   0.00001   1.88249
   A100       1.95221   0.00000   0.00000  -0.00000  -0.00000   1.95221
   A101       1.95204   0.00000   0.00000   0.00000   0.00000   1.95204
   A102       1.91165  -0.00000   0.00000   0.00000   0.00000   1.91165
   A103       1.89331  -0.00000  -0.00000  -0.00000  -0.00000   1.89331
   A104       1.87535  -0.00000  -0.00000   0.00000   0.00000   1.87535
   A105       1.87616   0.00000   0.00000  -0.00000   0.00000   1.87616
   A106       1.95231   0.00000  -0.00000   0.00001   0.00000   1.95231
   A107       1.95139  -0.00000   0.00000  -0.00000   0.00000   1.95139
   A108       1.91251  -0.00000   0.00000  -0.00001  -0.00001   1.91251
   A109       1.89244   0.00000  -0.00000   0.00001   0.00001   1.89244
   A110       1.87471  -0.00000   0.00000  -0.00000   0.00000   1.87471
   A111       1.87739  -0.00000  -0.00000  -0.00000  -0.00001   1.87739
   A112       1.95347  -0.00000  -0.00001  -0.00000  -0.00001   1.95346
   A113       1.92442   0.00000   0.00000   0.00000   0.00000   1.92443
   A114       1.93446  -0.00000  -0.00000   0.00000   0.00000   1.93446
   A115       1.87769   0.00000   0.00000  -0.00000   0.00000   1.87769
   A116       1.88132   0.00000   0.00000  -0.00000  -0.00000   1.88132
   A117       1.89021   0.00000   0.00000   0.00000   0.00000   1.89022
   A118       1.92454  -0.00000  -0.00000  -0.00000  -0.00001   1.92454
   A119       1.95435   0.00000   0.00000   0.00000   0.00001   1.95435
   A120       1.93433   0.00000   0.00000   0.00000   0.00000   1.93433
   A121       1.87815   0.00000  -0.00000  -0.00000  -0.00000   1.87815
   A122       1.88803   0.00000   0.00000   0.00000   0.00000   1.88804
   A123       1.88209  -0.00000  -0.00000   0.00000   0.00000   1.88209
   A124       1.80361  -0.00000  -0.00001   0.00000  -0.00000   1.80360
   A125       1.89429   0.00000  -0.00000   0.00001   0.00001   1.89431
   A126       1.89539   0.00000   0.00000   0.00001   0.00001   1.89540
   A127       1.87062   0.00000   0.00000  -0.00001  -0.00000   1.87062
   A128       1.85729  -0.00000   0.00000  -0.00002  -0.00001   1.85728
   A129       2.11734  -0.00000  -0.00000  -0.00000  -0.00000   2.11734
   A130       2.18914  -0.00000  -0.00000  -0.00000  -0.00000   2.18914
   A131       2.17767   0.00000  -0.00000   0.00000   0.00000   2.17767
   A132       1.88461   0.00000  -0.00000   0.00000   0.00000   1.88461
   A133       2.25606  -0.00000  -0.00001   0.00000  -0.00001   2.25606
   A134       1.91252   0.00000   0.00001  -0.00000   0.00000   1.91252
   A135       2.11457   0.00000   0.00000   0.00000   0.00001   2.11458
   A136       2.25742  -0.00000  -0.00000  -0.00000  -0.00000   2.25741
   A137       1.90879   0.00000   0.00000   0.00000   0.00000   1.90879
   A138       2.11673  -0.00000   0.00000  -0.00000   0.00000   2.11673
   A139       2.05363   0.00000   0.00000  -0.00000  -0.00000   2.05363
   A140       2.11534  -0.00000  -0.00000  -0.00000  -0.00000   2.11533
   A141       2.11420   0.00000   0.00000   0.00000   0.00000   2.11421
   A142       1.85901  -0.00000  -0.00000  -0.00000  -0.00000   1.85901
   A143       2.09065  -0.00000  -0.00000  -0.00000  -0.00001   2.09064
   A144       2.33342   0.00000   0.00000   0.00001   0.00001   2.33342
   A145       2.05517   0.00000  -0.00000   0.00000   0.00000   2.05517
   A146       2.11353  -0.00000  -0.00000  -0.00000  -0.00000   2.11353
   A147       2.11447  -0.00000   0.00000   0.00000   0.00000   2.11447
   A148       1.85982  -0.00000  -0.00000  -0.00000  -0.00000   1.85982
   A149       2.08549  -0.00000   0.00000  -0.00000  -0.00000   2.08549
   A150       2.33765   0.00000   0.00000   0.00000   0.00001   2.33766
   A151       2.14543  -0.00000  -0.00000  -0.00000  -0.00000   2.14543
   A152       2.05445   0.00000  -0.00000   0.00001   0.00000   2.05446
   A153       2.08330   0.00000   0.00000  -0.00000   0.00000   2.08330
   A154       2.10016   0.00000   0.00000   0.00000   0.00000   2.10017
   A155       2.07434   0.00000   0.00000  -0.00000  -0.00000   2.07434
   A156       2.10866  -0.00000  -0.00000  -0.00000  -0.00000   2.10866
   A157       2.14222   0.00000   0.00000  -0.00000   0.00000   2.14222
   A158       2.05077  -0.00000   0.00000  -0.00000  -0.00000   2.05077
   A159       2.09017   0.00000  -0.00000   0.00000   0.00000   2.09017
   A160       2.10558  -0.00000  -0.00000   0.00000   0.00000   2.10558
   A161       2.07755   0.00000   0.00000  -0.00000  -0.00000   2.07755
   A162       2.10004  -0.00000   0.00000  -0.00000   0.00000   2.10005
   A163       2.06145   0.00000  -0.00000   0.00000   0.00000   2.06145
   A164       2.07971  -0.00000   0.00000  -0.00001  -0.00000   2.07971
   A165       2.14202  -0.00000  -0.00000   0.00001   0.00000   2.14202
   A166       2.06115   0.00000  -0.00000   0.00000  -0.00000   2.06114
   A167       2.13696  -0.00000  -0.00000   0.00000  -0.00000   2.13696
   A168       2.08507   0.00000   0.00000  -0.00000   0.00000   2.08507
   A169       1.91417   0.00000   0.00001  -0.00001   0.00000   1.91417
   A170       1.90714   0.00000  -0.00000   0.00000   0.00000   1.90714
   A171       1.95965  -0.00000  -0.00001   0.00001  -0.00000   1.95965
   A172       1.91055  -0.00000   0.00000  -0.00001  -0.00001   1.91055
   A173       1.88543   0.00000  -0.00000   0.00000   0.00000   1.88543
   A174       1.88623   0.00000   0.00000   0.00000   0.00000   1.88623
   A175       1.91133  -0.00000   0.00001  -0.00001  -0.00000   1.91133
   A176       1.90932   0.00000  -0.00000   0.00001   0.00001   1.90932
   A177       1.96273  -0.00000  -0.00001   0.00001   0.00000   1.96273
   A178       1.90919  -0.00000   0.00000  -0.00000  -0.00000   1.90919
   A179       1.88481   0.00000  -0.00000  -0.00000  -0.00000   1.88481
   A180       1.88570  -0.00000   0.00000  -0.00000   0.00000   1.88570
   A181       1.95235   0.00000   0.00000  -0.00000   0.00000   1.95235
   A182       1.92848  -0.00000  -0.00000   0.00000  -0.00000   1.92847
   A183       1.93284   0.00000   0.00000   0.00000   0.00000   1.93284
   A184       1.87843   0.00000  -0.00000   0.00000   0.00000   1.87843
   A185       1.88041  -0.00000   0.00000  -0.00000  -0.00000   1.88041
   A186       1.88900  -0.00000  -0.00000   0.00000   0.00000   1.88900
   A187       1.95060   0.00000  -0.00000   0.00000   0.00000   1.95060
   A188       1.93127   0.00000   0.00000   0.00000   0.00000   1.93127
   A189       1.92929   0.00000   0.00000  -0.00000   0.00000   1.92929
   A190       1.88022  -0.00000   0.00000  -0.00000   0.00000   1.88023
   A191       1.88018  -0.00000   0.00000  -0.00000  -0.00000   1.88018
   A192       1.89009   0.00000  -0.00000   0.00000   0.00000   1.89009
   A193       1.95087  -0.00000   0.00000  -0.00000  -0.00000   1.95086
   A194       1.95021   0.00000   0.00000  -0.00000  -0.00000   1.95021
   A195       1.91527   0.00000  -0.00000   0.00001   0.00000   1.91528
   A196       1.89148  -0.00000   0.00000  -0.00000  -0.00000   1.89148
   A197       1.87635   0.00000   0.00000   0.00000   0.00000   1.87636
   A198       1.87667  -0.00000  -0.00000   0.00000  -0.00000   1.87667
   A199       1.92934  -0.00000  -0.00000  -0.00000  -0.00000   1.92934
   A200       1.95075   0.00000   0.00000   0.00000   0.00001   1.95076
   A201       1.93289  -0.00000   0.00000  -0.00000  -0.00000   1.93289
   A202       1.87862  -0.00000  -0.00000   0.00000  -0.00000   1.87862
   A203       1.88667   0.00000  -0.00000   0.00000   0.00000   1.88667
   A204       1.88323  -0.00000  -0.00000  -0.00000  -0.00000   1.88323
   A205       1.95099   0.00000  -0.00000   0.00000   0.00000   1.95099
   A206       1.92883   0.00000   0.00000  -0.00000  -0.00000   1.92883
   A207       1.93283   0.00000   0.00000  -0.00000   0.00000   1.93283
   A208       1.87953  -0.00000   0.00000  -0.00000  -0.00000   1.87953
   A209       1.88020  -0.00000   0.00000  -0.00000   0.00000   1.88020
   A210       1.88919  -0.00000   0.00000  -0.00000  -0.00000   1.88919
   A211       1.95216   0.00000  -0.00000   0.00000   0.00000   1.95216
   A212       1.95119  -0.00000   0.00000  -0.00000  -0.00000   1.95118
   A213       1.91397   0.00000   0.00000   0.00000   0.00000   1.91397
   A214       1.89142  -0.00000  -0.00000  -0.00000  -0.00000   1.89142
   A215       1.87593  -0.00000   0.00000  -0.00000  -0.00000   1.87593
   A216       1.87608   0.00000   0.00000   0.00000   0.00000   1.87608
   A217       2.19294  -0.00000   0.00002  -0.00001   0.00001   2.19295
   A218       2.19175  -0.00000  -0.00002   0.00000  -0.00002   2.19173
   A219       1.88712   0.00000   0.00000   0.00000   0.00000   1.88712
   A220       2.26634   0.00000   0.00001   0.00001   0.00001   2.26636
   A221       1.90595   0.00000  -0.00001   0.00001   0.00000   1.90595
   A222       2.11003  -0.00000   0.00000  -0.00001  -0.00001   2.11002
   A223       2.25785  -0.00000  -0.00001   0.00002   0.00001   2.25786
   A224       1.90921   0.00000   0.00001  -0.00001  -0.00000   1.90921
   A225       2.11508   0.00000   0.00000  -0.00001  -0.00000   2.11508
   A226       2.05806   0.00000  -0.00000   0.00000   0.00000   2.05806
   A227       2.11800   0.00000   0.00001   0.00002   0.00004   2.11804
   A228       2.10709  -0.00000  -0.00001  -0.00002  -0.00004   2.10705
   A229       1.86226  -0.00000   0.00001  -0.00001  -0.00000   1.86225
   A230       2.09084   0.00000   0.00000   0.00001   0.00001   2.09085
   A231       2.33001   0.00000  -0.00001   0.00000  -0.00001   2.33000
   A232       2.05545  -0.00000  -0.00000  -0.00000  -0.00000   2.05545
   A233       2.11071   0.00000  -0.00001   0.00003   0.00002   2.11073
   A234       2.11702  -0.00000   0.00001  -0.00003  -0.00002   2.11700
   A235       1.85947  -0.00000  -0.00001   0.00001   0.00000   1.85947
   A236       2.08934   0.00000   0.00000   0.00001   0.00001   2.08935
   A237       2.33427  -0.00000   0.00001  -0.00002  -0.00001   2.33426
   A238       2.14240   0.00000   0.00000   0.00001   0.00001   2.14241
   A239       2.04976  -0.00000  -0.00000  -0.00001  -0.00001   2.04975
   A240       2.09100  -0.00000   0.00000  -0.00000   0.00000   2.09101
   A241       2.10463  -0.00000  -0.00000  -0.00000  -0.00000   2.10463
   A242       2.07870  -0.00000  -0.00000  -0.00000  -0.00000   2.07870
   A243       2.09985   0.00000   0.00000   0.00001   0.00001   2.09986
   A244       2.14109   0.00000  -0.00000   0.00001   0.00001   2.14110
   A245       2.04958  -0.00000   0.00001  -0.00001  -0.00001   2.04957
   A246       2.09252  -0.00000  -0.00000   0.00000  -0.00000   2.09252
   A247       2.10267  -0.00000  -0.00000  -0.00000  -0.00000   2.10267
   A248       2.08058  -0.00000   0.00000  -0.00000  -0.00000   2.08057
   A249       2.09994   0.00000   0.00000   0.00001   0.00001   2.09995
   A250       2.06036  -0.00000  -0.00000  -0.00001  -0.00001   2.06036
   A251       2.13837  -0.00000  -0.00001   0.00000  -0.00000   2.13837
   A252       2.08440   0.00000   0.00000   0.00000   0.00001   2.08441
   A253       2.06085  -0.00000   0.00000  -0.00001  -0.00000   2.06084
   A254       2.13801  -0.00000  -0.00001   0.00000  -0.00000   2.13801
   A255       2.08432   0.00000   0.00000   0.00001   0.00001   2.08433
   A256       1.91246   0.00000   0.00001   0.00001   0.00001   1.91247
   A257       1.90514  -0.00000  -0.00000  -0.00001  -0.00001   1.90512
   A258       1.96210  -0.00000  -0.00001   0.00001  -0.00000   1.96210
   A259       1.91009  -0.00000   0.00001  -0.00000   0.00000   1.91010
   A260       1.88552  -0.00000   0.00000  -0.00001  -0.00001   1.88551
   A261       1.88789   0.00000   0.00000   0.00001   0.00001   1.88789
   A262       1.96082  -0.00000  -0.00001  -0.00000  -0.00001   1.96081
   A263       1.90437   0.00000   0.00001   0.00000   0.00001   1.90438
   A264       1.91232  -0.00000  -0.00001  -0.00001  -0.00001   1.91231
   A265       1.88623   0.00000  -0.00000   0.00000   0.00000   1.88623
   A266       1.88790   0.00000   0.00000   0.00001   0.00001   1.88791
   A267       1.91163  -0.00000   0.00000  -0.00000  -0.00000   1.91163
   A268       1.92558  -0.00000  -0.00000  -0.00000  -0.00000   1.92558
   A269       1.95435   0.00000   0.00001   0.00001   0.00001   1.95436
   A270       1.93396  -0.00000   0.00000  -0.00000  -0.00000   1.93396
   A271       1.87782  -0.00000  -0.00000   0.00000  -0.00000   1.87782
   A272       1.88747   0.00000  -0.00000  -0.00000  -0.00000   1.88747
   A273       1.88227  -0.00000  -0.00000   0.00000  -0.00000   1.88227
   A274       1.93417  -0.00000   0.00000  -0.00000  -0.00000   1.93417
   A275       1.95100  -0.00000  -0.00000  -0.00000  -0.00000   1.95099
   A276       1.92667   0.00000  -0.00000   0.00000   0.00000   1.92668
   A277       1.88109   0.00000   0.00000   0.00000   0.00000   1.88109
   A278       1.88899   0.00000  -0.00000   0.00000   0.00000   1.88899
   A279       1.87968   0.00000   0.00000   0.00000   0.00000   1.87968
   A280       1.95175  -0.00000   0.00000   0.00000   0.00000   1.95175
   A281       1.95238   0.00000   0.00000   0.00000   0.00000   1.95238
   A282       1.91314  -0.00000  -0.00000  -0.00000  -0.00000   1.91314
   A283       1.89267  -0.00000  -0.00000   0.00000  -0.00000   1.89267
   A284       1.87588   0.00000   0.00000  -0.00000  -0.00000   1.87588
   A285       1.87486  -0.00000   0.00000  -0.00000  -0.00000   1.87486
   A286       1.95215  -0.00000  -0.00000  -0.00000  -0.00000   1.95214
   A287       1.95069  -0.00000  -0.00000  -0.00001  -0.00001   1.95068
   A288       1.91349   0.00000   0.00000   0.00000   0.00001   1.91349
   A289       1.89186   0.00000   0.00000  -0.00000  -0.00000   1.89186
   A290       1.87504   0.00000  -0.00000  -0.00000  -0.00000   1.87504
   A291       1.87757   0.00000   0.00000   0.00001   0.00001   1.87758
   A292       1.95155   0.00000   0.00000   0.00000   0.00001   1.95155
   A293       1.92745  -0.00000  -0.00000  -0.00000  -0.00000   1.92745
   A294       1.93335   0.00000   0.00000   0.00000   0.00000   1.93335
   A295       1.87832  -0.00000  -0.00000  -0.00000  -0.00001   1.87832
   A296       1.88024  -0.00000  -0.00000  -0.00000  -0.00000   1.88024
   A297       1.89069   0.00000   0.00000   0.00000   0.00000   1.89069
   A298       1.95185  -0.00000  -0.00000  -0.00001  -0.00001   1.95184
   A299       1.93417   0.00000   0.00000   0.00000   0.00000   1.93417
   A300       1.92729   0.00000   0.00000   0.00000   0.00000   1.92730
   A301       1.88095  -0.00000  -0.00000  -0.00000  -0.00000   1.88094
   A302       1.87843   0.00000   0.00000   0.00000   0.00001   1.87843
   A303       1.88884  -0.00000  -0.00000   0.00000   0.00000   1.88884
    D1       -0.03835   0.00000   0.00004  -0.00001   0.00003  -0.03831
    D2        3.13363   0.00000   0.00003   0.00002   0.00005   3.13368
    D3       -3.13057   0.00000   0.00003   0.00001   0.00004  -3.13053
    D4        0.04141   0.00000   0.00002   0.00004   0.00005   0.04146
    D5       -3.10754  -0.00000  -0.00004   0.00001  -0.00003  -3.10757
    D6        0.02586  -0.00000  -0.00004  -0.00001  -0.00005   0.02581
    D7       -0.00665  -0.00000  -0.00003  -0.00001  -0.00003  -0.00668
    D8        3.12675  -0.00000  -0.00003  -0.00003  -0.00006   3.12670
    D9        3.11909   0.00000   0.00004  -0.00001   0.00003   3.11912
   D10       -0.05220   0.00000   0.00003  -0.00004  -0.00000  -0.05220
   D11        0.02230   0.00000   0.00003   0.00001   0.00004   0.02234
   D12        3.13420   0.00000   0.00002  -0.00002   0.00000   3.13420
   D13       -0.06003   0.00000   0.00002   0.00001   0.00003  -0.06000
   D14        3.06263  -0.00000   0.00005  -0.00006  -0.00001   3.06262
   D15       -3.12627  -0.00000  -0.00000   0.00003   0.00003  -3.12624
   D16       -0.00361  -0.00000   0.00003  -0.00004  -0.00001  -0.00362
   D17       -3.05420   0.00000  -0.00002   0.00003   0.00001  -3.05420
   D18        0.05005  -0.00000  -0.00002  -0.00002  -0.00004   0.05001
   D19        0.02516   0.00000  -0.00000   0.00001   0.00000   0.02517
   D20        3.12942   0.00000  -0.00000  -0.00004  -0.00004   3.12938
   D21        3.04363  -0.00000   0.00000  -0.00003  -0.00003   3.04360
   D22       -0.06849  -0.00000   0.00001  -0.00000   0.00001  -0.06848
   D23       -0.02976  -0.00000  -0.00002  -0.00001  -0.00003  -0.02978
   D24        3.14131  -0.00000  -0.00001   0.00002   0.00001   3.14132
   D25        0.01959   0.00000  -0.00001   0.00001   0.00001   0.01960
   D26       -3.11310  -0.00000  -0.00002   0.00001  -0.00001  -3.11311
   D27        3.13092   0.00000   0.00001  -0.00002  -0.00001   3.13091
   D28       -0.00177  -0.00000  -0.00001  -0.00002  -0.00003  -0.00180
   D29       -0.01126   0.00000   0.00002   0.00000   0.00002  -0.01124
   D30       -3.10777   0.00000   0.00002   0.00005   0.00007  -3.10769
   D31        3.14021   0.00000   0.00002   0.00002   0.00004   3.14025
   D32        0.04370   0.00000   0.00002   0.00008   0.00010   0.04380
   D33        0.00667   0.00000  -0.00000   0.00003   0.00003   0.00670
   D34       -3.13829   0.00000   0.00002  -0.00000   0.00002  -3.13827
   D35        3.13736   0.00000  -0.00001   0.00001   0.00000   3.13736
   D36       -0.00761   0.00000   0.00002  -0.00003  -0.00001  -0.00761
   D37        0.02666  -0.00000  -0.00001   0.00002   0.00001   0.02667
   D38       -3.12121  -0.00000  -0.00001  -0.00001  -0.00002  -3.12123
   D39       -3.09604   0.00000  -0.00004   0.00008   0.00004  -3.09599
   D40        0.03928   0.00000  -0.00003   0.00005   0.00002   0.03930
   D41       -0.00461   0.00000   0.00001   0.00001   0.00002  -0.00459
   D42       -3.13352   0.00000   0.00002   0.00002   0.00004  -3.13348
   D43        3.08715  -0.00000   0.00001  -0.00005  -0.00004   3.08711
   D44       -0.04176   0.00000   0.00002  -0.00004  -0.00002  -0.04178
   D45        0.01156  -0.00000  -0.00004   0.00001  -0.00003   0.01153
   D46       -3.12075  -0.00000  -0.00003  -0.00002  -0.00005  -3.12080
   D47       -3.13915  -0.00000  -0.00002   0.00001  -0.00001  -3.13916
   D48        0.01172  -0.00000  -0.00001  -0.00002  -0.00003   0.01169
   D49       -0.02477   0.00000   0.00004  -0.00003   0.00001  -0.02476
   D50        3.10786   0.00000   0.00004  -0.00001   0.00003   3.10789
   D51        3.12022   0.00000   0.00001   0.00000   0.00002   3.12024
   D52       -0.03034   0.00000   0.00001   0.00003   0.00004  -0.03030
   D53        0.01649  -0.00000   0.00000  -0.00003  -0.00003   0.01646
   D54       -3.13864  -0.00000  -0.00003  -0.00001  -0.00004  -3.13868
   D55       -3.11867   0.00000  -0.00000   0.00001   0.00000  -3.11867
   D56        0.00939  -0.00000  -0.00003   0.00002  -0.00001   0.00938
   D57       -0.02750  -0.00000  -0.00000   0.00001   0.00001  -0.02749
   D58        3.12716   0.00000   0.00003   0.00000   0.00003   3.12718
   D59        3.10131  -0.00000  -0.00001   0.00000  -0.00001   3.10130
   D60       -0.02721   0.00000   0.00002  -0.00001   0.00001  -0.02721
   D61       -2.11795   0.00000   0.00000   0.00006   0.00006  -2.11789
   D62        2.07414   0.00000   0.00001   0.00006   0.00007   2.07421
   D63       -0.01787   0.00000   0.00000   0.00006   0.00006  -0.01781
   D64        1.03300  -0.00000   0.00000   0.00003   0.00004   1.03304
   D65       -1.05810   0.00000   0.00001   0.00004   0.00005  -1.05805
   D66        3.13308   0.00000   0.00001   0.00003   0.00004   3.13311
   D67        0.02621   0.00000   0.00007   0.00001   0.00008   0.02629
   D68        2.12034   0.00000   0.00008   0.00001   0.00009   2.12043
   D69       -2.07107  -0.00000   0.00006   0.00001   0.00007  -2.07100
   D70       -3.12903  -0.00000   0.00004   0.00002   0.00007  -3.12896
   D71       -1.03490   0.00000   0.00005   0.00002   0.00008  -1.03483
   D72        1.05687  -0.00000   0.00004   0.00002   0.00006   1.05693
   D73       -0.00592   0.00000   0.00004  -0.00008  -0.00004  -0.00596
   D74        3.12202   0.00000  -0.00001   0.00001   0.00001   3.12203
   D75        2.66785  -0.00000  -0.00008  -0.00002  -0.00010   2.66775
   D76       -0.48739   0.00000  -0.00013   0.00007  -0.00006  -0.48745
   D77        0.04415  -0.00000  -0.00004   0.00007   0.00002   0.04417
   D78       -3.08974   0.00000  -0.00005   0.00010   0.00005  -3.08969
   D79       -2.62010  -0.00000   0.00008   0.00001   0.00009  -2.62001
   D80        0.52919  -0.00000   0.00008   0.00004   0.00012   0.52931
   D81        2.26682   0.00000   0.00008  -0.00006   0.00002   2.26684
   D82       -0.90949   0.00000   0.00008  -0.00010  -0.00002  -0.90951
   D83       -1.35155   0.00000  -0.00004  -0.00001  -0.00004  -1.35159
   D84        1.75533  -0.00000  -0.00004  -0.00004  -0.00008   1.75524
   D85       -0.04061  -0.00000  -0.00002   0.00001  -0.00001  -0.04062
   D86        3.04087   0.00000  -0.00004   0.00005   0.00001   3.04088
   D87        3.11522  -0.00000   0.00003  -0.00008  -0.00006   3.11516
   D88       -0.08649  -0.00000   0.00001  -0.00004  -0.00003  -0.08653
   D89        2.15969  -0.00000   0.00001  -0.00006  -0.00004   2.15965
   D90       -0.80093  -0.00000   0.00001  -0.00000   0.00000  -0.80093
   D91       -0.99550  -0.00000  -0.00004   0.00003  -0.00000  -0.99550
   D92        2.32707   0.00000  -0.00004   0.00009   0.00004   2.32711
   D93        0.05113   0.00000   0.00001   0.00006   0.00007   0.05120
   D94       -2.90561   0.00000   0.00003  -0.00001   0.00002  -2.90559
   D95       -3.03085   0.00000   0.00003   0.00002   0.00005  -3.03080
   D96        0.29560   0.00000   0.00005  -0.00005  -0.00000   0.29560
   D97       -0.01318  -0.00000  -0.00001  -0.00007  -0.00008  -0.01326
   D98        3.09580  -0.00000   0.00002  -0.00007  -0.00005   3.09575
   D99        2.94187  -0.00000  -0.00003   0.00000  -0.00003   2.94184
   D100      -0.23234   0.00000  -0.00000   0.00000   0.00000  -0.23234
   D101       1.37743  -0.00000   0.00005  -0.00001   0.00005   1.37747
   D102      -2.92384   0.00000   0.00005  -0.00001   0.00005  -2.92379
   D103      -0.58990   0.00000   0.00005   0.00001   0.00006  -0.58983
   D104      -1.58022  -0.00000   0.00008  -0.00008  -0.00000  -1.58022
   D105       0.40171  -0.00000   0.00007  -0.00008  -0.00001   0.40170
   D106       2.73565   0.00000   0.00007  -0.00006   0.00001   2.73566
   D107      -0.03455   0.00000   0.00003   0.00000   0.00003  -0.03452
   D108       3.09922   0.00000   0.00003  -0.00003   0.00000   3.09923
   D109       3.13973   0.00000   0.00000   0.00000   0.00000   3.13973
   D110      -0.00968  -0.00000   0.00000  -0.00003  -0.00003  -0.00971
   D111      -1.23045  -0.00000  -0.00001  -0.00008  -0.00009  -1.23055
   D112       1.61035  -0.00000  -0.00005  -0.00005  -0.00010   1.61025
   D113       1.91885  -0.00000  -0.00001  -0.00005  -0.00007   1.91879
   D114      -1.52353  -0.00000  -0.00005  -0.00002  -0.00007  -1.52360
   D115      -3.13263   0.00000   0.00003   0.00004   0.00007  -3.13256
   D116      -1.04317   0.00000   0.00003   0.00004   0.00007  -1.04310
   D117       1.06232   0.00000   0.00003   0.00004   0.00007   1.06239
   D118      -1.04889  -0.00000   0.00003   0.00004   0.00006  -1.04883
   D119       1.04056   0.00000   0.00003   0.00004   0.00006   1.04062
   D120      -3.13714   0.00000   0.00003   0.00004   0.00007  -3.13707
   D121       1.00573  -0.00000   0.00002   0.00004   0.00006   1.00579
   D122       3.09518  -0.00000   0.00002   0.00004   0.00006   3.09525
   D123      -1.08251  -0.00000   0.00002   0.00004   0.00006  -1.08245
   D124      -3.12556  -0.00000  -0.00001   0.00000  -0.00001  -3.12558
   D125      -1.03390  -0.00000  -0.00001   0.00000  -0.00001  -1.03391
   D126       1.06713  -0.00000  -0.00001   0.00000  -0.00001   1.06712
   D127       1.06656   0.00000  -0.00001   0.00001  -0.00000   1.06656
   D128      -3.12495   0.00000  -0.00001   0.00001  -0.00000  -3.12495
   D129      -1.02393   0.00000  -0.00001   0.00001   0.00000  -1.02392
   D130      -0.98804   0.00000  -0.00000   0.00001   0.00000  -0.98804
   D131       1.10363   0.00000  -0.00000   0.00001   0.00000   1.10363
   D132      -3.07853   0.00000  -0.00000   0.00001   0.00001  -3.07852
   D133      -1.06125  -0.00000  -0.00008   0.00001  -0.00007  -1.06132
   D134       1.06658  -0.00000  -0.00008   0.00000  -0.00008   1.06650
   D135      -3.13848  -0.00000  -0.00008   0.00000  -0.00007  -3.13855
   D136       1.05275  -0.00000  -0.00008   0.00000  -0.00008   1.05267
   D137      -3.10261  -0.00000  -0.00008  -0.00000  -0.00008  -3.10269
   D138      -1.02448  -0.00000  -0.00008  -0.00000  -0.00008  -1.02456
   D139       3.12284  -0.00000  -0.00008   0.00000  -0.00008   3.12276
   D140      -1.03252  -0.00000  -0.00008   0.00000  -0.00008  -1.03260
   D141       1.04561  -0.00000  -0.00008   0.00000  -0.00008   1.04553
   D142      -1.07931  -0.00000   0.00001  -0.00003  -0.00003  -1.07934
   D143       1.04699   0.00000   0.00001  -0.00002  -0.00002   1.04697
   D144       3.12682  -0.00000   0.00000  -0.00003  -0.00003   3.12679
   D145       3.10038  -0.00000   0.00001  -0.00003  -0.00003   3.10035
   D146      -1.05651   0.00000   0.00001  -0.00002  -0.00002  -1.05653
   D147       1.02332  -0.00000   0.00000  -0.00003  -0.00003   1.02329
   D148       1.03000  -0.00000   0.00001  -0.00003  -0.00002   1.02998
   D149      -3.12689   0.00000   0.00001  -0.00002  -0.00001  -3.12690
   D150      -1.04706  -0.00000   0.00001  -0.00003  -0.00002  -1.04708
   D151       1.06742  -0.00000   0.00003  -0.00000   0.00003   1.06744
   D152      -3.12631  -0.00000   0.00003  -0.00001   0.00002  -3.12628
   D153      -1.03348  -0.00000   0.00003  -0.00000   0.00003  -1.03345
   D154      -3.07720   0.00000   0.00004  -0.00001   0.00004  -3.07717
   D155      -0.98774   0.00000   0.00004  -0.00001   0.00003  -0.98771
   D156       1.10509   0.00000   0.00005  -0.00001   0.00004   1.10513
   D157      -1.02228   0.00000   0.00004  -0.00001   0.00004  -1.02224
   D158       1.06718   0.00000   0.00004  -0.00001   0.00003   1.06722
   D159      -3.12318   0.00000   0.00005  -0.00000   0.00004  -3.12313
   D160       3.14026   0.00000   0.00000   0.00001   0.00002   3.14028
   D161      -1.05222   0.00000   0.00000   0.00001   0.00001  -1.05221
   D162       1.05017   0.00000   0.00000   0.00001   0.00002   1.05019
   D163       0.99884  -0.00000  -0.00001   0.00002   0.00001   0.99885
   D164       3.08955  -0.00000  -0.00001   0.00001  -0.00000   3.08955
   D165      -1.09125  -0.00000  -0.00001   0.00002   0.00001  -1.09125
   D166      -1.05608  -0.00000  -0.00002   0.00002   0.00000  -1.05608
   D167       1.03463  -0.00000  -0.00002   0.00001  -0.00001   1.03462
   D168       3.13701  -0.00000  -0.00001   0.00002   0.00000   3.13701
   D169      -0.00716   0.00000  -0.00000   0.00002   0.00001  -0.00714
   D170       3.10845  -0.00000  -0.00000   0.00001   0.00001   3.10846
   D171       3.05840   0.00000  -0.00001   0.00001   0.00000   3.05840
   D172      -0.10918  -0.00000  -0.00001   0.00000  -0.00000  -0.10918
   D173       0.00634  -0.00000   0.00000  -0.00002  -0.00002   0.00633
   D174      -3.11932  -0.00000   0.00000  -0.00003  -0.00003  -3.11935
   D175      -3.05909   0.00000   0.00001  -0.00001  -0.00000  -3.05910
   D176       0.09843  -0.00000   0.00000  -0.00002  -0.00002   0.09842
   D177      -1.60368  -0.00000  -0.00002  -0.00001  -0.00003  -1.60371
   D178       2.68049  -0.00000  -0.00002  -0.00002  -0.00004   2.68045
   D179       0.39127   0.00000  -0.00002  -0.00000  -0.00002   0.39125
   D180       1.46308  -0.00000  -0.00002  -0.00001  -0.00004   1.46304
   D181      -0.53594  -0.00000  -0.00002  -0.00003  -0.00005  -0.53598
   D182      -2.82515   0.00000  -0.00002  -0.00001  -0.00003  -2.82519
   D183      -0.00043  -0.00000  -0.00000   0.00000   0.00000  -0.00043
   D184       3.12839  -0.00000  -0.00000  -0.00000  -0.00001   3.12839
   D185      -3.11554   0.00000   0.00000   0.00001   0.00001  -3.11553
   D186       0.01328   0.00000   0.00000   0.00000   0.00000   0.01329
   D187       0.00206   0.00000  -0.00000   0.00000   0.00000   0.00206
   D188      -3.13270   0.00000  -0.00000   0.00001   0.00001  -3.13270
   D189       3.12750   0.00000   0.00000   0.00001   0.00001   3.12751
   D190      -0.00727   0.00000   0.00000   0.00001   0.00002  -0.00725
   D191       0.00873  -0.00000   0.00000  -0.00002  -0.00002   0.00872
   D192       3.13891  -0.00000   0.00000  -0.00001  -0.00001   3.13889
   D193      -3.12005  -0.00000   0.00000  -0.00001  -0.00001  -3.12005
   D194       0.01013   0.00000   0.00000  -0.00001  -0.00001   0.01012
   D195      -0.00956   0.00000  -0.00000   0.00002   0.00002  -0.00955
   D196      -3.13974   0.00000   0.00000   0.00001   0.00001  -3.13973
   D197       3.12517   0.00000  -0.00000   0.00001   0.00001   3.12518
   D198      -0.00501   0.00000  -0.00000   0.00001   0.00001  -0.00500
   D199      -0.26605   0.00000  -0.00001   0.00008   0.00007  -0.26598
   D200       2.88393   0.00000   0.00002   0.00005   0.00006   2.88399
   D201       3.13429   0.00000   0.00002   0.00005   0.00007   3.13436
   D202       0.00108   0.00000   0.00005   0.00002   0.00007   0.00115
   D203       0.22850  -0.00000   0.00002  -0.00007  -0.00005   0.22845
   D204      -2.88902  -0.00000  -0.00002  -0.00003  -0.00005  -2.88907
   D205       3.11347  -0.00000  -0.00001  -0.00004  -0.00006   3.11341
   D206      -0.00405  -0.00000  -0.00005  -0.00001  -0.00006  -0.00410
   D207       3.11917   0.00000   0.00003  -0.00001   0.00001   3.11918
   D208      -0.01711   0.00000   0.00004  -0.00001   0.00002  -0.01709
   D209      -0.03166   0.00000  -0.00000   0.00002   0.00002  -0.03164
   D210       3.11524   0.00000   0.00001   0.00002   0.00003   3.11527
   D211       0.00219  -0.00000  -0.00003  -0.00003  -0.00005   0.00213
   D212      -3.12563  -0.00000  -0.00003   0.00001  -0.00002  -3.12565
   D213      -3.13182  -0.00000  -0.00001  -0.00005  -0.00006  -3.13188
   D214       0.02355  -0.00000  -0.00001  -0.00002  -0.00002   0.02352
   D215      -3.11678  -0.00000  -0.00004   0.00005   0.00001  -3.11677
   D216       0.03139   0.00000  -0.00003   0.00005   0.00002   0.03140
   D217      -0.00176   0.00000   0.00000   0.00001   0.00001  -0.00175
   D218      -3.13678   0.00000   0.00001   0.00001   0.00001  -3.13677
   D219       0.00533   0.00000   0.00003  -0.00001   0.00002   0.00535
   D220       3.12733   0.00000   0.00003  -0.00004  -0.00001   3.12733
   D221      -3.11448   0.00000   0.00000   0.00002   0.00002  -3.11446
   D222       0.00752   0.00000   0.00000  -0.00000  -0.00000   0.00752
   D223       0.01482   0.00000   0.00002  -0.00002   0.00000   0.01482
   D224      -3.12732  -0.00000   0.00002  -0.00003  -0.00001  -3.12733
   D225      -3.13208   0.00000   0.00001  -0.00002  -0.00001  -3.13209
   D226       0.00897  -0.00000   0.00001  -0.00003  -0.00002   0.00895
   D227      -0.00454   0.00000  -0.00000   0.00002   0.00002  -0.00452
   D228      -3.12246   0.00000  -0.00000   0.00006   0.00005  -3.12240
   D229       3.12052   0.00000   0.00000  -0.00002  -0.00002   3.12049
   D230       0.00260   0.00000   0.00000   0.00001   0.00001   0.00261
   D231       0.00270   0.00000   0.00000   0.00001   0.00001   0.00270
   D232       3.13785   0.00000  -0.00001   0.00002   0.00001   3.13786
   D233      -3.12063   0.00000  -0.00000   0.00006   0.00005  -3.12058
   D234       0.01452   0.00000  -0.00001   0.00007   0.00005   0.01458
   D235      -0.00403  -0.00000   0.00001  -0.00001  -0.00000  -0.00403
   D236      -3.13777   0.00000   0.00002  -0.00002   0.00000  -3.13777
   D237       3.13099  -0.00000   0.00000  -0.00001  -0.00001   3.13098
   D238      -0.00275  -0.00000   0.00001  -0.00002  -0.00000  -0.00276
   D239      -0.00761  -0.00000  -0.00001   0.00001  -0.00000  -0.00762
   D240       3.13754  -0.00000  -0.00001   0.00001  -0.00000   3.13754
   D241       3.10790  -0.00000  -0.00001  -0.00003  -0.00004   3.10786
   D242      -0.03012  -0.00000  -0.00001  -0.00003  -0.00004  -0.03016
   D243       0.01028  -0.00000  -0.00003   0.00001  -0.00002   0.01026
   D244      -3.12738  -0.00000   0.00002  -0.00004  -0.00003  -3.12740
   D245      -3.13076  -0.00000  -0.00003   0.00002  -0.00001  -3.13077
   D246       0.01477  -0.00000   0.00001  -0.00003  -0.00001   0.01476
   D247      -0.01896   0.00000   0.00002  -0.00000   0.00001  -0.01894
   D248       3.11855   0.00000  -0.00003   0.00005   0.00002   3.11857
   D249       3.12920   0.00000   0.00003  -0.00001   0.00001   3.12921
   D250      -0.01648   0.00000  -0.00002   0.00004   0.00002  -0.01646
   D251       0.00390  -0.00000  -0.00002   0.00001  -0.00000   0.00390
   D252      -3.13300  -0.00000   0.00003  -0.00005  -0.00003  -3.13303
   D253       3.13748  -0.00000  -0.00003   0.00002  -0.00001   3.13747
   D254       0.00057  -0.00000   0.00002  -0.00005  -0.00003   0.00054
   D255       0.00207   0.00000   0.00002  -0.00001   0.00001   0.00208
   D256       3.13912   0.00000  -0.00002   0.00005   0.00003   3.13915
   D257       3.14005   0.00000   0.00002  -0.00001   0.00000   3.14005
   D258      -0.00609   0.00000  -0.00003   0.00005   0.00002  -0.00606
   D259      -1.04055   0.00000  -0.00006   0.00017   0.00011  -1.04045
   D260       1.05376   0.00000  -0.00005   0.00015   0.00010   1.05386
   D261      -3.13687   0.00000  -0.00005   0.00016   0.00011  -3.13676
   D262       2.10516   0.00000  -0.00001   0.00011   0.00010   2.10527
   D263      -2.08370   0.00000  -0.00000   0.00010   0.00010  -2.08361
   D264       0.00885   0.00000  -0.00001   0.00011   0.00010   0.00895
   D265      -2.09802  -0.00000  -0.00003  -0.00001  -0.00004  -2.09806
   D266       2.09291  -0.00000  -0.00004  -0.00000  -0.00004   2.09287
   D267      -0.00243  -0.00000  -0.00003  -0.00001  -0.00004  -0.00247
   D268       1.04832  -0.00000   0.00001  -0.00007  -0.00006   1.04826
   D269      -1.04393  -0.00000   0.00001  -0.00007  -0.00006  -1.04399
   D270      -3.13927  -0.00000   0.00001  -0.00008  -0.00007  -3.13933
   D271       1.05340   0.00000   0.00002  -0.00004  -0.00002   1.05338
   D272      -3.13739   0.00000   0.00002  -0.00004  -0.00002  -3.13740
   D273      -1.04448   0.00000   0.00002  -0.00004  -0.00002  -1.04450
   D274      -1.03883   0.00000   0.00002  -0.00003  -0.00002  -1.03885
   D275       1.05357  -0.00000   0.00002  -0.00003  -0.00002   1.05355
   D276      -3.13671  -0.00000   0.00001  -0.00003  -0.00002  -3.13673
   D277      -3.08882  -0.00000   0.00002  -0.00003  -0.00002  -3.08883
   D278      -0.99642  -0.00000   0.00002  -0.00003  -0.00002  -0.99644
   D279       1.09649  -0.00000   0.00001  -0.00003  -0.00002   1.09647
   D280      -1.05327  -0.00000  -0.00002  -0.00002  -0.00004  -1.05331
   D281       1.04213  -0.00000  -0.00003  -0.00002  -0.00004   1.04209
   D282       3.13591  -0.00000  -0.00003  -0.00001  -0.00004   3.13588
   D283       1.04327  -0.00000  -0.00001  -0.00003  -0.00004   1.04323
   D284       3.13867   0.00000  -0.00001  -0.00003  -0.00004   3.13863
   D285      -1.05073   0.00000  -0.00001  -0.00003  -0.00004  -1.05077
   D286       3.09276  -0.00000  -0.00001  -0.00003  -0.00004   3.09271
   D287      -1.09503   0.00000  -0.00001  -0.00003  -0.00004  -1.09507
   D288       0.99875   0.00000  -0.00001  -0.00003  -0.00004   0.99871
   D289      -1.06127   0.00000   0.00007   0.00004   0.00011  -1.06116
   D290       1.06191   0.00000   0.00007   0.00003   0.00010   1.06201
   D291      -3.14128   0.00000   0.00007   0.00003   0.00010  -3.14118
   D292       3.10900   0.00000   0.00007   0.00004   0.00011   3.10911
   D293      -1.05101   0.00000   0.00007   0.00003   0.00010  -1.05090
   D294       1.02899  -0.00000   0.00007   0.00004   0.00010   1.02909
   D295       1.04341   0.00000   0.00007   0.00005   0.00011   1.04352
   D296      -3.11660   0.00000   0.00007   0.00004   0.00011  -3.11649
   D297      -1.03661   0.00000   0.00007   0.00004   0.00011  -1.03650
   D298      -3.13660  -0.00000  -0.00001  -0.00004  -0.00004  -3.13665
   D299      -1.04443  -0.00000  -0.00001  -0.00003  -0.00004  -1.04447
   D300       1.05599  -0.00000  -0.00001  -0.00004  -0.00004   1.05595
   D301      -1.04427  -0.00000  -0.00001  -0.00003  -0.00004  -1.04431
   D302       1.04790  -0.00000  -0.00001  -0.00003  -0.00004   1.04786
   D303      -3.13486   0.00000  -0.00001  -0.00003  -0.00004  -3.13490
   D304       1.00397  -0.00000  -0.00000  -0.00004  -0.00004   1.00393
   D305       3.09615  -0.00000  -0.00001  -0.00004  -0.00004   3.09611
   D306      -1.08661  -0.00000  -0.00000  -0.00004  -0.00004  -1.08666
   D307       1.05507  -0.00000  -0.00000  -0.00000  -0.00000   1.05507
   D308      -3.13499  -0.00000  -0.00000  -0.00000  -0.00000  -3.13500
   D309      -1.04163  -0.00000  -0.00000  -0.00000  -0.00000  -1.04163
   D310      -1.03850   0.00000  -0.00001   0.00001   0.00000  -1.03850
   D311       1.05463   0.00000  -0.00001   0.00001  -0.00000   1.05462
   D312      -3.13519   0.00000  -0.00001   0.00001  -0.00000  -3.13519
   D313      -3.08618   0.00000  -0.00001   0.00001   0.00000  -3.08618
   D314      -0.99306   0.00000  -0.00001   0.00001   0.00000  -0.99306
   D315       1.10030   0.00000  -0.00001   0.00001   0.00000   1.10031
   D316      -1.06081   0.00000  -0.00006   0.00001  -0.00005  -1.06086
   D317       1.06392  -0.00000  -0.00007   0.00001  -0.00006   1.06387
   D318      -3.14025   0.00000  -0.00006   0.00001  -0.00006  -3.14030
   D319       1.05007  -0.00000  -0.00006  -0.00000  -0.00006   1.05001
   D320      -3.10839  -0.00000  -0.00006  -0.00000  -0.00006  -3.10845
   D321      -1.02937  -0.00000  -0.00006  -0.00000  -0.00006  -1.02943
   D322       3.11342  -0.00000  -0.00006  -0.00001  -0.00006   3.11336
   D323      -1.04503  -0.00000  -0.00006  -0.00001  -0.00007  -1.04510
   D324       1.03398  -0.00000  -0.00006  -0.00001  -0.00006   1.03392
   D325       0.14507   0.00000  -0.00000   0.00013   0.00013   0.14520
   D326      -2.95148   0.00000  -0.00001   0.00009   0.00008  -2.95141
   D327       3.13202   0.00000   0.00000   0.00008   0.00008   3.13210
   D328       0.03547   0.00000  -0.00001   0.00004   0.00003   0.03550
   D329      -0.24145  -0.00000   0.00001  -0.00006  -0.00006  -0.24151
   D330       2.94949  -0.00000   0.00002  -0.00010  -0.00008   2.94941
   D331       3.05466  -0.00000  -0.00000  -0.00002  -0.00002   3.05464
   D332      -0.03759  -0.00000   0.00002  -0.00006  -0.00004  -0.03763
   D333      -3.10030  -0.00000  -0.00001  -0.00003  -0.00004  -3.10035
   D334       0.05073   0.00000  -0.00000   0.00001   0.00001   0.05073
   D335      -0.00828  -0.00000   0.00000   0.00001   0.00001  -0.00827
   D336      -3.14043   0.00000   0.00001   0.00006   0.00006  -3.14037
   D337      -0.01986  -0.00000  -0.00000  -0.00001  -0.00001  -0.01987
   D338       3.10995  -0.00000   0.00000   0.00000   0.00000   3.10995
   D339      -3.12116  -0.00000  -0.00001  -0.00005  -0.00006  -3.12122
   D340       0.00864  -0.00000  -0.00001  -0.00004  -0.00004   0.00860
   D341       3.13305  -0.00000   0.00002  -0.00005  -0.00003   3.13303
   D342      -0.01282  -0.00000   0.00001  -0.00004  -0.00003  -0.01285
   D343      -0.06296  -0.00000  -0.00000  -0.00000  -0.00000  -0.06296
   D344       3.07435  -0.00000  -0.00001   0.00001  -0.00001   3.07435
   D345       0.02488   0.00000  -0.00002   0.00005   0.00003   0.02491
   D346      -3.13041   0.00000  -0.00002   0.00004   0.00002  -3.13040
   D347      -3.07212   0.00000  -0.00000   0.00001   0.00001  -3.07211
   D348       0.05577   0.00000  -0.00000  -0.00000  -0.00000   0.05577
   D349       0.00044   0.00000   0.00001   0.00001   0.00002   0.00046
   D350      -3.13427   0.00000   0.00001   0.00002   0.00003  -3.13424
   D351       3.13265  -0.00000   0.00000  -0.00003  -0.00003   3.13263
   D352      -0.00206  -0.00000   0.00001  -0.00003  -0.00002  -0.00208
   D353      -0.00308  -0.00000   0.00001  -0.00003  -0.00001  -0.00310
   D354      -3.12821   0.00000   0.00002  -0.00001   0.00001  -3.12820
   D355      -3.13058  -0.00000   0.00001  -0.00004  -0.00003  -3.13061
   D356       0.02749  -0.00000   0.00001  -0.00002  -0.00001   0.02748
   D357      -0.00095   0.00000   0.00000   0.00003   0.00004  -0.00091
   D358      -3.14103  -0.00000  -0.00001   0.00001   0.00000  -3.14102
   D359       3.12508   0.00000   0.00001   0.00005   0.00006   3.12514
   D360      -0.01500   0.00000  -0.00000   0.00003   0.00003  -0.01497
   D361       0.02332   0.00000  -0.00000   0.00000   0.00000   0.02332
   D362      -3.12111   0.00000  -0.00001   0.00002   0.00001  -3.12110
   D363      -3.11398  -0.00000   0.00001  -0.00000   0.00001  -3.11397
   D364       0.02478   0.00000  -0.00000   0.00001   0.00001   0.02479
   D365      -0.00679   0.00000   0.00001   0.00000   0.00001  -0.00677
   D366       3.13508   0.00000   0.00001   0.00002   0.00003   3.13511
   D367       3.11663  -0.00000   0.00001  -0.00002  -0.00001   3.11662
   D368      -0.02469  -0.00000   0.00001  -0.00001   0.00001  -0.02469
   D369       0.00695  -0.00000  -0.00001  -0.00002  -0.00003   0.00693
   D370      -3.12376   0.00000   0.00002   0.00001   0.00004  -3.12372
   D371       3.14150  -0.00000  -0.00002  -0.00002  -0.00003   3.14147
   D372       0.01080   0.00000   0.00002   0.00001   0.00003   0.01082
   D373      -0.00658  -0.00000   0.00001  -0.00001  -0.00000  -0.00658
   D374       3.12447  -0.00000  -0.00003  -0.00004  -0.00006   3.12441
   D375       3.13348   0.00000   0.00002   0.00001   0.00003   3.13351
   D376      -0.01865  -0.00000  -0.00002  -0.00001  -0.00003  -0.01868
   D377       0.02339   0.00000   0.00001  -0.00000   0.00001   0.02340
   D378      -3.12129  -0.00000  -0.00003  -0.00001  -0.00004  -3.12133
   D379      -3.11530   0.00000   0.00002  -0.00002   0.00000  -3.11530
   D380       0.02320  -0.00000  -0.00002  -0.00003  -0.00005   0.02316
   D381      -0.03142  -0.00000  -0.00002   0.00000  -0.00001  -0.03144
   D382       3.11316  -0.00000   0.00002   0.00001   0.00003   3.11319
   D383       3.10990  -0.00000  -0.00002  -0.00001  -0.00003   3.10987
   D384      -0.02870  -0.00000   0.00002  -0.00000   0.00002  -0.02869
   D385      -2.12433   0.00000   0.00003   0.00001   0.00004  -2.12429
   D386       2.06737   0.00000   0.00002   0.00002   0.00004   2.06741
   D387      -0.02748  -0.00000   0.00002   0.00001   0.00004  -0.02744
   D388       1.02830   0.00000   0.00006   0.00004   0.00010   1.02840
   D389      -1.06319   0.00000   0.00005   0.00005   0.00010  -1.06309
   D390       3.12514   0.00000   0.00006   0.00004   0.00010   3.12525
   D391       0.01646   0.00000   0.00013  -0.00006   0.00007   0.01653
   D392       2.10790   0.00000   0.00013  -0.00006   0.00007   2.10797
   D393      -2.08247   0.00000   0.00013  -0.00006   0.00007  -2.08240
   D394      -3.12826  -0.00000   0.00009  -0.00007   0.00002  -3.12824
   D395      -1.03682  -0.00000   0.00009  -0.00006   0.00002  -1.03680
   D396       1.05599  -0.00000   0.00009  -0.00007   0.00002   1.05601
   D397      -3.13552  -0.00000   0.00001   0.00005   0.00006  -3.13546
   D398      -1.04454   0.00000   0.00001   0.00006   0.00006  -1.04447
   D399       1.05783   0.00000   0.00001   0.00006   0.00007   1.05790
   D400      -1.04706  -0.00000   0.00001   0.00004   0.00005  -1.04701
   D401       1.04392  -0.00000   0.00001   0.00004   0.00006   1.04397
   D402      -3.13690  -0.00000   0.00001   0.00004   0.00006  -3.13684
   D403       1.00470   0.00000   0.00002   0.00004   0.00006   1.00475
   D404       3.09568   0.00000   0.00002   0.00004   0.00006   3.09574
   D405      -1.08514   0.00000   0.00002   0.00005   0.00007  -1.08508
   D406      -1.04194   0.00000   0.00000   0.00001   0.00001  -1.04192
   D407       1.05681   0.00000   0.00000   0.00001   0.00001   1.05682
   D408      -3.13451   0.00000   0.00000   0.00001   0.00001  -3.13450
   D409      -3.13488  -0.00000  -0.00001   0.00001   0.00001  -3.13488
   D410      -1.03613  -0.00000  -0.00001   0.00001   0.00000  -1.03613
   D411       1.05573  -0.00000  -0.00001   0.00001   0.00000   1.05573
   D412       1.09803   0.00000  -0.00001   0.00002   0.00001   1.09804
   D413      -3.08641  -0.00000  -0.00001   0.00002   0.00000  -3.08641
   D414      -0.99455  -0.00000  -0.00001   0.00002   0.00001  -0.99454
   D415      -1.05585  -0.00000  -0.00003  -0.00001  -0.00004  -1.05589
   D416       1.07106  -0.00000  -0.00003  -0.00000  -0.00004   1.07102
   D417      -3.13442  -0.00000  -0.00003  -0.00001  -0.00004  -3.13446
   D418       1.05651   0.00000  -0.00003   0.00000  -0.00003   1.05649
   D419      -3.09976   0.00000  -0.00003   0.00000  -0.00002  -3.09978
   D420      -1.02206   0.00000  -0.00003   0.00000  -0.00002  -1.02208
   D421       3.12252   0.00000  -0.00002  -0.00001  -0.00002   3.12249
   D422      -1.03376   0.00000  -0.00002  -0.00000  -0.00002  -1.03378
   D423       1.04395   0.00000  -0.00002  -0.00000  -0.00002   1.04393
   D424      -1.07693   0.00000   0.00002   0.00003   0.00005  -1.07688
   D425       1.04800   0.00000   0.00002   0.00002   0.00004   1.04805
   D426       3.12825   0.00000   0.00002   0.00003   0.00005   3.12830
   D427       3.10431   0.00000   0.00001   0.00003   0.00004   3.10435
   D428      -1.05394  -0.00000   0.00001   0.00002   0.00003  -1.05391
   D429       1.02630   0.00000   0.00001   0.00003   0.00004   1.02634
   D430       1.03608   0.00000   0.00001   0.00003   0.00004   1.03612
   D431      -3.12217  -0.00000   0.00001   0.00002   0.00003  -3.12215
   D432      -1.04193   0.00000   0.00001   0.00003   0.00003  -1.04189
   D433       1.06786   0.00000   0.00006  -0.00005   0.00002   1.06788
   D434      -3.12428   0.00000   0.00006  -0.00005   0.00001  -3.12427
   D435      -1.02961   0.00000   0.00006  -0.00005   0.00001  -1.02960
   D436      -3.07841  -0.00000   0.00006  -0.00005   0.00001  -3.07840
   D437      -0.98737  -0.00000   0.00006  -0.00005   0.00001  -0.98737
   D438       1.10730  -0.00000   0.00006  -0.00005   0.00001   1.10731
   D439      -1.02538   0.00000   0.00006  -0.00004   0.00003  -1.02536
   D440       1.06566   0.00000   0.00006  -0.00004   0.00002   1.06568
   D441      -3.12285   0.00000   0.00006  -0.00004   0.00002  -3.12283
   D442      -1.05113  -0.00000  -0.00001   0.00003   0.00002  -1.05111
   D443       1.04800  -0.00000  -0.00002   0.00003   0.00001   1.04801
   D444       3.14080  -0.00000  -0.00001   0.00003   0.00001   3.14081
   D445       3.08923   0.00000  -0.00000   0.00003   0.00003   3.08926
   D446      -1.09483   0.00000  -0.00000   0.00003   0.00002  -1.09481
   D447       0.99797   0.00000  -0.00000   0.00003   0.00003   0.99799
   D448       1.03724   0.00000  -0.00000   0.00003   0.00002   1.03726
   D449       3.13637   0.00000  -0.00000   0.00002   0.00002   3.13638
[...]
 GradGradGradGradGradGradGradGradGradGradGradGradGradGradGradGradGradGrad

 Leave Link  103 at Wed Oct  2 20:03:31 2024, MaxMem=  2147483648 cpu:              97.9 elap:              11.5
 (Enter /apps/gaussian/g16/l202.exe)
 Stoichiometry    C72H79N3O2S
 Framework group  C1[X(C72H79N3O2S)]
 Deg. of freedom   465
 Full point group                 C1      NOp   1
 RotChk:  IX=0 Diff= 5.69D-01
 Largest Abelian subgroup         C1      NOp   1
 Largest concise Abelian subgroup C1      NOp   1
                         Standard orientation:                         
 ---------------------------------------------------------------------
 Center     Atomic      Atomic             Coordinates (Angstroms)
 Number     Number       Type             X           Y           Z
 ---------------------------------------------------------------------
      1          6           0        1.123347   -0.940811   -0.010988
      2          6           0       -0.760475   -0.204606    0.979104
      3          6           0        2.197385   -1.154118   -0.873466
      4          6           0        0.923834   -1.755948    1.130243
      5          6           0       -1.863431    0.550773    1.360262
      6          6           0       -0.300715   -1.283850    1.763376
      7          6           0        3.096994   -2.167119   -0.551458
      8          1           0        2.346036   -0.536676   -1.748892
      9          6           0        1.824089   -2.764974    1.417260
     10          6           0       -2.549532    0.160162    2.511849
     11          1           0       -2.169961    1.421725    0.795429
     12          6           0       -0.991019   -1.642425    2.908311
     13          6           0        2.943158   -2.980204    0.583655
     14          1           0        3.943328   -2.310658   -1.209423
     15          1           0        1.666056   -3.388927    2.290366
     16          6           0       -2.146354   -0.931100    3.295935
     17          1           0       -3.419000    0.738570    2.795004
     18          1           0       -0.629944   -2.467931    3.512550
     19          6           0       -0.046585    0.972972   -1.113515
     20          6           0       -1.327405    1.063893   -1.781327
     21          6           0       -1.772451    2.239097   -2.325904
     22          6           0       -0.981806    3.415888   -2.192615
     23          6           0        0.293945    3.359522   -1.551623
     24          6           0        0.765064    2.182702   -1.045492
     25          1           0       -2.689515    2.268450   -2.902254
     26          1           0        0.904245    4.253557   -1.494630
     27          6           0        3.950567   -4.079674    0.952361
     28          6           0       -2.903152   -1.364063    4.561533
     29          7           0        0.096686   -0.018400   -0.108684
     30          6           0       -2.672547    5.338157   -1.092891
     31          6           0       -4.012907    4.950231   -1.041679
     32          6           0       -2.050679    5.927394    0.009724
     33          6           0       -4.734994    5.148956    0.134540
     34          1           0       -4.478145    4.523529   -1.922946
     35          6           0       -2.781696    6.122203    1.179585
     36          1           0       -1.014946    6.239003   -0.061098
     37          6           0       -4.120315    5.728960    1.245513
     38          1           0       -5.780434    4.861754    0.179118
     39          1           0       -2.308404    6.586858    2.038006
     40          1           0       -4.685832    5.884390    2.158265
     41          8           0       -0.632683    5.969126   -2.645071
     42          8           0       -2.661983    4.784719   -3.661487
     43          6           0        3.228017   -5.445117    1.011524
     44          1           0        3.935956   -6.234894    1.282702
     45          1           0        2.424607   -5.453358    1.753135
     46          1           0        2.791965   -5.697484    0.041000
     47          6           0        4.560432   -3.755961    2.336383
     48          1           0        5.295116   -4.518749    2.613930
     49          1           0        5.062638   -2.784731    2.320892
     50          1           0        3.799294   -3.727384    3.120787
     51          6           0        5.100072   -4.188468   -0.065308
     52          1           0        4.735299   -4.436028   -1.066955
     53          1           0        5.678678   -3.262383   -0.126175
     54          1           0        5.784957   -4.984637    0.240412
     55          6           0       -4.145055   -0.494606    4.827613
     56          1           0       -3.880138    0.553934    4.994751
     57          1           0       -4.859878   -0.543166    4.000815
     58          1           0       -4.655849   -0.850546    5.726980
     59          6           0       -3.366562   -2.830121    4.397697
     60          1           0       -2.522399   -3.513297    4.269661
     61          1           0       -3.922235   -3.153416    5.283947
     62          1           0       -4.018080   -2.937000    3.526012
     63          6           0       -1.964129   -1.251292    5.784610
     64          1           0       -2.489731   -1.555410    6.695618
     65          1           0       -1.081771   -1.889055    5.683219
     66          1           0       -1.619770   -0.221463    5.916972
     67         16           0       -1.701249    4.965687   -2.565260
     68          7           0        2.057728    2.115760   -0.452838
     69          6           0        2.315538    1.940058    0.904943
     70          6           0        3.239021    1.874984   -1.149281
     71          6           0        1.452919    2.076858    1.991917
     72          6           0        3.667924    1.586003    1.087087
     73          6           0        3.474661    1.896206   -2.521039
     74          6           0        4.265078    1.547353   -0.233038
     75          6           0        1.962409    1.814812    3.255657
     76          1           0        0.419358    2.372550    1.854662
     77          6           0        4.154218    1.338618    2.375650
     78          6           0        4.758718    1.585334   -2.963658
     79          1           0        2.686806    2.152174   -3.220724
     80          6           0        5.541477    1.247805   -0.709669
     81          6           0        3.306937    1.437519    3.479366
     82          1           0        1.288126    1.907868    4.100898
     83          1           0        5.195289    1.064159    2.497856
     84          6           0        5.811156    1.260071   -2.083045
     85          1           0        4.938460    1.606632   -4.031518
     86          1           0        6.324721    1.000960    0.000602
     87          6           0        3.775421    1.148957    4.916206
     88          6           0        7.231058    0.928266   -2.579378
     89          6           0        3.573160    2.406316    5.791837
     90          6           0        2.949207   -0.021596    5.496870
     91          6           0        5.263371    0.759917    4.977800
     92          6           0        7.614093   -0.500340   -2.130628
     93          6           0        8.233826    1.940458   -1.980284
     94          6           0        7.347815    0.992271   -4.113145
     95          1           0        2.522905    2.707486    5.835430
     96          1           0        3.906767    2.216829    6.817921
     97          1           0        4.145767    3.250260    5.396120
     98          1           0        1.881542    0.211783    5.527320
     99          1           0        3.076114   -0.922260    4.889096
    100          1           0        3.270309   -0.248676    6.519399
    101          1           0        5.469969   -0.147473    4.401836
    102          1           0        5.907658    1.560972    4.602404
    103          1           0        5.551510    0.564107    6.015161
    104          1           0        8.624375   -0.752216   -2.470864
    105          1           0        7.596138   -0.601995   -1.041846
    106          1           0        6.921066   -1.236893   -2.548714
    107          1           0        8.241512    1.905636   -0.887331
    108          1           0        9.250272    1.725063   -2.327320
    109          1           0        7.979073    2.961362   -2.279210
    110          1           0        6.680817    0.275677   -4.602738
    111          1           0        7.121266    1.991792   -4.496469
    112          1           0        8.370931    0.748346   -4.415012
    113          7           0       -2.095711   -0.121856   -1.862788
    114          6           0       -3.399522   -0.278164   -1.397127
    115          6           0       -1.612249   -1.381121   -2.233934
    116          6           0       -4.293209    0.672983   -0.907436
    117          6           0       -3.742115   -1.651183   -1.424342
    118          6           0       -0.406752   -1.719938   -2.837975
    119          6           0       -2.591496   -2.357963   -1.959776
    120          6           0       -5.534565    0.230285   -0.456530
    121          1           0       -4.039133    1.725713   -0.884160
    122          6           0       -4.989130   -2.061088   -0.967283
    123          6           0       -0.165142   -3.069270   -3.094367
    124          1           0        0.316354   -0.958825   -3.102875
    125          6           0       -2.327241   -3.695600   -2.235819
    126          6           0       -5.913072   -1.125281   -0.477146
    127          1           0       -6.225357    0.976364   -0.084257
    128          1           0       -5.239800   -3.116653   -0.992787
    129          6           0       -1.096798   -4.077951   -2.792358
    130          1           0        0.783297   -3.328857   -3.547014
    131          1           0       -3.084454   -4.441379   -2.015911
    132          6           0       -7.294382   -1.605753    0.000984
    133          6           0       -0.815505   -5.568072   -3.052958
    134          6           0       -7.118870   -2.631528    1.143798
    135          6           0       -8.036195   -2.273063   -1.180019
    136          6           0       -8.167913   -0.452050    0.526167
    137          6           0        0.585005   -5.804219   -3.646808
    138          6           0       -0.906843   -6.341567   -1.717446
    139          6           0       -1.860225   -6.126145   -4.045661
    140          1           0       -8.095321   -2.986593    1.489550
    141          1           0       -6.543623   -3.504964    0.824866
    142          1           0       -6.599803   -2.180652    1.994196
    143          1           0       -8.166697   -1.567544   -2.005650
    144          1           0       -7.490843   -3.139494   -1.564250
    145          1           0       -9.026562   -2.616741   -0.863255
    146          1           0       -7.705304    0.052426    1.380381
    147          1           0       -8.367729    0.293462   -0.249469
    148          1           0       -9.133064   -0.844574    0.859597
    149          1           0        0.704307   -5.312100   -4.616943
    150          1           0        1.374654   -5.446660   -2.978734
    151          1           0        0.742946   -6.875755   -3.801227
    152          1           0       -1.902896   -6.267419   -1.272174
    153          1           0       -0.692569   -7.403936   -1.875426
    154          1           0       -0.187811   -5.949790   -0.992296
    155          1           0       -2.878636   -6.036466   -3.657443
    156          1           0       -1.817406   -5.589303   -4.997801
    157          1           0       -1.672374   -7.187081   -4.241940
 ---------------------------------------------------------------------
 Rotational constants (GHZ):           0.0298217           0.0224557           0.0197699
 Leave Link  202 at Wed Oct  2 20:03:31 2024, MaxMem=  2147483648 cpu:               0.2 elap:               0.0
 (Enter /apps/gaussian/g16/l9999.exe)

 Test job not archived.
 1\1\GINC-PMLP-HPCCLSAP02\FOpt\RwB97XD TDA-FC\6-31G(d,p)\C72H79N3O2S1\W
 ILLIAM1\02-Oct-2024\0\\#p opt wb97xd/6-31G** iop(3/107=0105700000,3/10
 8=0105700000) TDA=(triplets, nstates=4, root=2)\\Tuning input file gen
 erated by xtune with parameters: w01057\\0,1\C,0.8451593859,-0.8157757
 372,-0.6990877201\C,-0.8282884579,-0.690091835,0.8025261853\C,1.847503
 7174,-0.5352316266,-1.626193678\C,0.4604845159,-2.1487756537,-0.413085
 1817\C,-1.7336551132,-0.2523908513,1.7622759273\C,-0.6287219193,-2.064
 2131425,0.5511416822\C,2.4928784243,-1.6114732195,-2.2298085794\H,2.13
 6530307,0.482588563,-1.8502676152\C,1.1075677596,-3.1978126331,-1.0390
 059418\C,-2.4962799746,-1.2182863181,2.4217560837\H,-1.8322328483,0.79
 81261395,2.0036245929\C,-1.3881570517,-3.0025455081,1.2284619525\C,2.1
 531909135,-2.9462823298,-1.9538506013\H,3.2881605593,-1.3885976222,-2.
 9281317054\H,0.8079411673,-4.2169708212,-0.8195846742\C,-2.3545454729,
 -2.5912857653,2.1707965906\H,-3.2137583695,-0.8729167936,3.1543198212\
 H,-1.2263690726,-4.0582069278,1.0378223279\C,0.1443366105,1.4770646784
 ,0.0070310551\C,-1.0792239127,2.2197376654,-0.2076230159\C,-1.24398031
 96,3.4897198918,0.2779022937\C,-0.2082522981,4.0815209144,1.0555661075
 \C,1.0183286526,3.3824543427,1.2755531742\C,1.2083139711,2.1340395962,
 0.7574875206\H,-2.1276288417,4.0656133257,0.0297925231\H,1.8148026971,
 3.8615424775,1.8333326571\C,2.8837598948,-4.1329821073,-2.6001189204\C
 ,-3.1962039578,-3.6549021748,2.8934781724\N,0.0543744273,0.0611865001,
 0.0220340823\C,-1.4258067516,4.9204671762,3.4171007401\C,-2.8194267204
 ,4.8364595071,3.3961365391\C,-0.6924300067,4.4525778269,4.5093087772\C
 ,-3.4838728743,4.2676472724,4.4821187409\H,-3.364601103,5.2358498469,2
 .5485370619\C,-1.366427092,3.8869845068,5.5894674278\H,0.3873012559,4.
 5476349122,4.5113576426\C,-2.7596308114,3.7886779558,5.5750765511\H,-4
 .5674004077,4.2095236261,4.4795870135\H,-0.8047014541,3.5286049928,6.4
 455196908\H,-3.2800076435,3.3489735113,6.4194413849\O,0.7119034698,6.1
 110886269,2.4266227142\O,-1.5275013545,6.337832916,1.2069372788\C,1.87
 06772144,-5.001811386,-3.3803839637\H,2.3801300359,-5.8561013906,-3.83
 76683943\H,1.0824278865,-5.3956540099,-2.7330252117\H,1.3938414144,-4.
 4237634763,-4.1767729197\C,3.5439091722,-4.9804116765,-1.4873264561\H,
 4.0854872581,-5.8248726137,-1.9257537697\H,4.252936756,-4.3791480453,-
 0.911565312\H,2.8049448308,-5.3857332934,-0.7908471081\C,3.9840635817,
 -3.6835215214,-3.5779556655\H,3.5779041956,-3.0920405239,-4.4042893445
 \H,4.7575260309,-3.094284869,-3.0772777394\H,4.4694357599,-4.562684844
 5,-4.0114312581\C,-4.2105042436,-3.0344877119,3.8709020185\H,-3.716056
 4619,-2.4687273627,4.6665084662\H,-4.9134990608,-2.3701380177,3.359665
 8141\H,-4.7932243945,-3.8282201392,4.3472313156\C,-3.9784890462,-4.479
 6468687,1.8452679798\H,-3.3101654616,-5.0023223366,1.1554219014\H,-4.5
 974686266,-5.2341564999,2.3415646014\H,-4.6327873978,-3.8346412939,1.2
 523127568\C,-2.2623419864,-4.5897938511,3.6961475432\H,-2.847819248,-5
 .3533422304,4.2185372023\H,-1.5466762475,-5.1059869125,3.0504348023\H,
 -1.6945674203,-4.0256812909,4.4418420548\S,-0.5564055838,5.5356535081,
 1.9625524592\N,2.4492247041,1.4587813759,0.9331771151\C,2.6535821845,0
 .3416373724,1.7401047787\C,3.5489695324,1.5860953885,0.0888941855\C,1.
 8386988642,-0.1843100253,2.7419447757\C,3.8898138358,-0.2543434434,1.4
 175854621\C,3.7903721338,2.5247038092,-0.9103235238\C,4.4695338935,0.5
 469832493,0.3580497647\C,2.2691510535,-1.33675535,3.3837159788\H,0.899
 5798871,0.287199439,3.0070021787\C,4.3008606063,-1.410226998,2.0906748
 796\C,4.9730419437,2.4083728113,-1.6377249077\H,3.0844944284,3.3229290
 011,-1.1112409621\C,5.6474823526,0.4636325189,-0.384641641\C,3.4922547
 244,-1.9767167463,3.0761192148\H,1.6290640753,-1.75439139,4.1541822459
 \H,5.2521772315,-1.8576965001,1.8282645507\C,5.9200222971,1.3915620225
 ,-1.3964253024\H,5.1584470084,3.1429618887,-2.4117345183\H,6.350877665
 9,-0.3349390371,-0.1692225529\C,3.8758722418,-3.2622668881,3.829414292
 1\C,7.2305516177,1.2760441375,-2.1975063581\C,3.9588650365,-2.97205722
 16,5.3451579683\C,2.8032266502,-4.3449464137,3.5701208972\C,5.23685510
 92,-3.8202207704,3.3760319553\C,7.2780598266,-0.0920928871,-2.91510733
 24\C,8.4332492263,1.3919197186,-1.2336174188\C,7.3666738402,2.37758565
 92,-3.2643923711\H,3.0037918529,-2.620922155,5.7453816051\H,4.23564308
 57,-3.8784528442,5.8946017695\H,4.7096240473,-2.2037594647,5.552018909
 \H,1.815923393,-4.0287026737,3.9172864937\H,2.7261688283,-4.5635188045
 ,2.501020025\H,3.0593368289,-5.272841016,4.0932440587\H,5.2357337622,-
 4.0789069733,2.3126153062\H,6.0476233846,-3.1077168181,3.5568857262\H,
 5.4678558276,-4.7314228075,3.9362393706\H,8.2068816233,-0.1942929897,-
 3.4866983926\H,7.231952044,-0.9237077351,-2.206310124\H,6.4385046584,-
 0.1949908859,-3.6094781086\H,8.4272177075,0.5994732042,-0.4800853548\H
 ,9.3763653737,1.3187602804,-1.7860399358\H,8.4176647465,2.351217378,-0
 .7082538751\H,6.5573567452,2.3344175809,-4.0000815629\H,7.374158153,3.
 3766486952,-2.8181638429\H,8.3095977821,2.2518541524,-3.8052023423\N,-
 2.0954869344,1.5816741066,-0.9579661913\C,-3.4032333305,1.3613058982,-
 0.5308442918\C,-1.9076099727,0.889769756,-2.1593001186\C,-4.0610230496
 ,1.8240440827,0.6077253435\C,-4.0474879749,0.4852589231,-1.4368075239\
 C,-0.8069518121,0.8803000181,-3.0086227481\C,-3.0839018805,0.181661403
 9,-2.480590103\C,-5.3726641431,1.4052588618,0.8186231009\H,-3.57544445
 06,2.4954583556,1.3054023106\C,-5.3572527071,0.0858148822,-1.198203096
 8\C,-0.8756229231,0.0852771132,-4.1523151812\H,0.070981798,1.474591930
 7,-2.7886318888\C,-3.127768186,-0.5951957882,-3.6337910842\C,-6.047985
 5142,0.5425924053,-0.0651191014\H,-5.8786222059,1.7748584771,1.7016957
 566\H,-5.8401436564,-0.5865610439,-1.8999366177\C,-2.0129071878,-0.672
 2841843,-4.4829444984\H,-0.0082048696,0.066811179,-4.7996590576\H,-4.0
 352222681,-1.1416655988,-3.870041922\C,-7.5046369699,0.1015758063,0.16
 10431435\C,-2.0747625534,-1.5684650608,-5.732156668\C,-7.5716923794,-1
 .4402952416,0.2457860226\C,-8.3721081181,0.5901269995,-1.0218210912\C,
 -8.0971411575,0.6764678496,1.4604046838\C,-0.7609720911,-1.5460541999,
 -6.5342203521\C,-2.3456490266,-3.0267724018,-5.2960508564\C,-3.2135316
 861,-1.0864612186,-6.6590986308\H,-8.6049310161,-1.7681842201,0.400635
 4611\H,-7.2073746722,-1.916562281,-0.6685230848\H,-6.9684564012,-1.810
 1339196,1.07958596\H,-8.3353164881,1.6800253136,-1.1068057102\H,-8.034
 987869,0.1694674073,-1.9732094369\H,-9.4161763407,0.2927668494,-0.8776
 671478\H,-7.5367895602,0.3503993162,2.3423739019\H,-8.1190725672,1.770
 4142239,1.4491672441\H,-9.1277868062,0.3294047439,1.579084171\H,-0.528
 4028278,-0.5437880318,-6.906980309\H,0.0856475774,-1.897180708,-5.9361
 71363\H,-0.8488063117,-2.2063320078,-7.4021474213\H,-3.3013703233,-3.1
 238079454,-4.773491424\H,-2.376518971,-3.6874780767,-6.1689844857\H,-1
 .5603647316,-3.3826086539,-4.6229620348\H,-4.1872226209,-1.1290086273,
 -6.1630809374\H,-3.0454342259,-0.0532302383,-6.976556733\H,-3.26961718
 45,-1.7149423208,-7.5542319924\\Version=ES64L-G16RevC.01\State=1-A\HF=
 -3503.7549086\RMSD=8.002e-09\RMSF=1.977e-06\Dipole=-0.6419829,-5.06194
 47,1.2701476\PG=C01 [X(C72H79N3O2S1)]\\@


 TOM, TOM, THE BURGLAR'S SON
 STOLE A MACHINE AND AWAY HE RUN
 THE JOB WAS NEAT, BUT TOM GOT BEAT
 BY THE TIME HE GOT HOME IT WAS OBSOLETE.
 Job cpu time:       0 days  0 hours  1 minutes 46.9 seconds.
 Elapsed time:       0 days  0 hours  0 minutes 12.2 seconds.
 File lengths (MBytes):  RWF=    451 Int=      0 D2E=      0 Chk=    563 Scr=      1
 Normal termination of Gaussian 16 at Wed Oct  2 20:03:36 2024.
