 Entering Gaussian System, Link 0=g16
 Initial command:
 /apps/gaussian/g16/l1.exe "/local/Gau-10300.inp" -scrdir="/local/"
 Entering Link 1 = /apps/gaussian/g16/l1.exe PID=     10307.
  
 Copyright (c) 1988-2019, Gaussian, Inc.  All Rights Reserved.
  
 This is part of the Gaussian(R) 16 program.  It is based on
 the Gaussian(R) 09 system (copyright 2009, Gaussian, Inc.),
 the Gaussian(R) 03 system (copyright 2003, Gaussian, Inc.),
 the Gaussian(R) 98 system (copyright 1998, Gaussian, Inc.),
 the Gaussian(R) 94 system (copyright 1995, Gaussian, Inc.),
 the Gaussian 92(TM) system (copyright 1992, Gaussian, Inc.),
 the Gaussian 90(TM) system (copyright 1990, Gaussian, Inc.),
 the Gaussian 88(TM) system (copyright 1988, Gaussian, Inc.),
 the Gaussian 86(TM) system (copyright 1986, Carnegie Mellon
 University), and the Gaussian 82(TM) system (copyright 1983,
 Carnegie Mellon University). Gaussian is a federally registered
 trademark of Gaussian, Inc.
  
 This software contains proprietary and confidential information,
 including trade secrets, belonging to Gaussian, Inc.
  
 This software is provided under written license and may be
 used, copied, transmitted, or stored only in accord with that
 written license.
  
 The following legend is applicable only to US Government
 contracts under FAR:
  
                    RESTRICTED RIGHTS LEGEND
  
 Use, reproduction and disclosure by the US Government is
 subject to restrictions as set forth in subparagraphs (a)
 and (c) of the Commercial Computer Software - Restricted
 Rights clause in FAR 52.227-19.
  
 Gaussian, Inc.
 340 Quinnipiac St., Bldg. 40, Wallingford CT 06492
  
  
 ---------------------------------------------------------------
 Warning -- This program may not be used in any manner that
 competes with the business of Gaussian, Inc. or will provide
 assistance to any competitor of Gaussian, Inc.  The licensee
 of this program is prohibited from giving any competitor of
 Gaussian, Inc. access to this program.  By using this program,
 the user acknowledges that Gaussian, Inc. is engaged in the
 business of creating and licensing software in the field of
 computational chemistry and represents and warrants to the
 licensee that it is not a competitor of Gaussian, Inc. and that
 it will not use this program in any manner prohibited above.
 ---------------------------------------------------------------
  

 Cite this work as:
 Gaussian 16, Revision C.01,
 M. J. Frisch, G. W. Trucks, H. B. Schlegel, G. E. Scuseria, 
 M. A. Robb, J. R. Cheeseman, G. Scalmani, V. Barone, 
 G. A. Petersson, H. Nakatsuji, X. Li, M. Caricato, A. V. Marenich, 
 J. Bloino, B. G. Janesko, R. Gomperts, B. Mennucci, H. P. Hratchian, 
 J. V. Ortiz, A. F. Izmaylov, J. L. Sonnenberg, D. Williams-Young, 
 F. Ding, F. Lipparini, F. Egidi, J. Goings, B. Peng, A. Petrone, 
 T. Henderson, D. Ranasinghe, V. G. Zakrzewski, J. Gao, N. Rega, 
 G. Zheng, W. Liang, M. Hada, M. Ehara, K. Toyota, R. Fukuda, 
 J. Hasegawa, M. Ishida, T. Nakajima, Y. Honda, O. Kitao, H. Nakai, 
 T. Vreven, K. Throssell, J. A. Montgomery, Jr., J. E. Peralta, 
 F. Ogliaro, M. J. Bearpark, J. J. Heyd, E. N. Brothers, K. N. Kudin, 
 V. N. Staroverov, T. A. Keith, R. Kobayashi, J. Normand, 
 K. Raghavachari, A. P. Rendell, J. C. Burant, S. S. Iyengar, 
 J. Tomasi, M. Cossi, J. M. Millam, M. Klene, C. Adamo, R. Cammi, 
 J. W. Ochterski, R. L. Martin, K. Morokuma, O. Farkas, 
 J. B. Foresman, and D. J. Fox, Gaussian, Inc., Wallingford CT, 2019.
 
 ******************************************
 Gaussian 16:  ES64L-G16RevC.01  3-Jul-2019
                13-Sep-2024 
 ******************************************
 %chk=YZ-IX-171.chk
 %nprocshared=16
 Will use up to   16 processors via shared memory.
 %mem=16GB
 ----------------------------------------------------------------------
 #p opt=Restart wb97xd/6-31G** iop(3/107=0103900000,3/108=0103900000) T
 DA=(triplets, nstates=4, root=2)
 ----------------------------------------------------------------------
 1/18=20,19=15,26=3,35=1/3(2);
 2/9=110/2;
 99//99;
 2/9=110/2;
 3/5=1,6=6,7=101,11=9,25=1,30=1,71=1,74=-58,107=103900000,108=103900000/1,2,3,8;
 4/5=5,16=3,69=1/1;
 5/5=2,38=5/2;
 8/6=1,10=2,107=2,108=4/1;
 9/8=2,15=2,41=4,42=1,48=3,49=4/14;
 10/5=4,28=2/2;
 7/12=6,13=5,14=2/1,2,3,16;
 1/18=20,19=15,26=3/3(-8);
 2/9=110/2;
 6/7=2,8=2,9=2,10=2/1;
 99/9=10/99;
 Leave Link    1 at Fri Sep 13 19:20:56 2024, MaxMem=  2147483648 cpu:               1.2 elap:               0.1
 (Enter /apps/gaussian/g16/l103.exe)

 GradGradGradGradGradGradGradGradGradGradGradGradGradGradGradGradGradGrad
 Berny optimization.
 Restoring state from the checkpoint file "YZ-IX-171.chk".
 ONIOM results not found on unit 2.
 Title:  Tuning input file generated by xtune with parameters: w01039
 Route:  #p opt wb97xd/6-31G** iop(3/107=0103900000,3/108=0103900000) TDA=(triple
 ts, nstates=4, root=2)
 FncErr=1.00D-07 GrdErr=1.00D-06 EigMax=2.50D+02 EigMin=1.00D-04
 Using GEDIIS/GDIIS optimizer.
 FormGI is forming the generalized inverse of G from B-inverse, IUseBI=4.
 GSVD:  received Info=                   1 from GESDD.
 Internal  Forces:  Max     0.000568893 RMS     0.000033944
 Search for a local minimum.
 Step number  27 out of a maximum of  930
 All quantities printed in internal units (Hartrees-Bohrs-Radians)
 RMS Force = .33944D-04 SwitMx=.10000D-02 MixMth= 2
 Mixed Optimization -- En-DIIS/RFO-DIIS
 Swapping is turned off.
 Update second derivatives using D2CorX and points    1    3    2    4    5
                                                      6    7    8    9   10
                                                     11   12   13   14   15
                                                     16   17   19   18   20
                                                     21   22   23   24   25
                                                     26   27
 DE=  4.79D-07 DEPred=-2.67D-07 R=-1.79D+00
 Trust test=-1.79D+00 RLast= 7.31D-03 DXMaxT set to 5.00D-02
 ITU= -1  1  1  1 -1  0  0 -1  0  0  0 -1  1  1  0  1  0  1 -1 -1
 ITU=  1  1 -1  1 -1  1  0
     Eigenvalues ---    0.00001   0.00230   0.00230   0.00230   0.00230
     Eigenvalues ---    0.00230   0.00230   0.00230   0.00230   0.00230
     Eigenvalues ---    0.00231   0.00231   0.00234   0.00239   0.00240
     Eigenvalues ---    0.00242   0.00242   0.00243   0.00243   0.00244
     Eigenvalues ---    0.00246   0.00248   0.00256   0.00439   0.00659
     Eigenvalues ---    0.00814   0.01062   0.01170   0.01304   0.01307
     Eigenvalues ---    0.01312   0.01320   0.01332   0.01460   0.01557
     Eigenvalues ---    0.01576   0.01698   0.01726   0.01733   0.01745
     Eigenvalues ---    0.01756   0.01790   0.01818   0.01820   0.01848
     Eigenvalues ---    0.01869   0.01877   0.01901   0.01904   0.01912
     Eigenvalues ---    0.01932   0.01941   0.01943   0.01948   0.01960
     Eigenvalues ---    0.01971   0.01989   0.02008   0.02018   0.02024
     Eigenvalues ---    0.02042   0.02051   0.02054   0.02057   0.02059
     Eigenvalues ---    0.02074   0.02080   0.02082   0.02087   0.02092
     Eigenvalues ---    0.02093   0.02110   0.02121   0.02130   0.02133
     Eigenvalues ---    0.02135   0.02135   0.02141   0.02146   0.02153
     Eigenvalues ---    0.02158   0.02161   0.02162   0.02163   0.02165
     Eigenvalues ---    0.02168   0.02174   0.02175   0.02178   0.02179
     Eigenvalues ---    0.02184   0.02185   0.02196   0.02205   0.02219
     Eigenvalues ---    0.02262   0.02319   0.02578   0.03112   0.03256
     Eigenvalues ---    0.04261   0.04924   0.04929   0.04938   0.04940
     Eigenvalues ---    0.04950   0.04983   0.05039   0.05075   0.05079
     Eigenvalues ---    0.05081   0.05098   0.05176   0.05181   0.05201
     Eigenvalues ---    0.05202   0.05205   0.05256   0.05264   0.05266
     Eigenvalues ---    0.05271   0.05275   0.05281   0.05293   0.05317
     Eigenvalues ---    0.05343   0.05358   0.05363   0.05364   0.05366
     Eigenvalues ---    0.05367   0.05367   0.05368   0.05375   0.05377
     Eigenvalues ---    0.05383   0.05395   0.05484   0.05486   0.05486
     Eigenvalues ---    0.05486   0.05487   0.05487   0.05488   0.05489
     Eigenvalues ---    0.05494   0.05496   0.05519   0.05520   0.05566
     Eigenvalues ---    0.05570   0.05571   0.05574   0.05575   0.05587
     Eigenvalues ---    0.06147   0.07075   0.08795   0.10582   0.11306
     Eigenvalues ---    0.12677   0.13813   0.14340   0.14678   0.14682
     Eigenvalues ---    0.14685   0.14706   0.14777   0.14867   0.15037
     Eigenvalues ---    0.15204   0.15213   0.15229   0.15243   0.15557
     Eigenvalues ---    0.15802   0.15938   0.15961   0.15981   0.15989
     Eigenvalues ---    0.15991   0.15994   0.15997   0.15998   0.15998
     Eigenvalues ---    0.15999   0.15999   0.16000   0.16000   0.16000
     Eigenvalues ---    0.16000   0.16000   0.16000   0.16000   0.16000
     Eigenvalues ---    0.16000   0.16000   0.16000   0.16000   0.16000
     Eigenvalues ---    0.16000   0.16000   0.16000   0.16000   0.16000
     Eigenvalues ---    0.16000   0.16000   0.16000   0.16000   0.16000
     Eigenvalues ---    0.16000   0.16000   0.16000   0.16000   0.16000
     Eigenvalues ---    0.16000   0.16000   0.16000   0.16000   0.16000
     Eigenvalues ---    0.16000   0.16000   0.16000   0.16000   0.16000
     Eigenvalues ---    0.16000   0.16000   0.16000   0.16000   0.16000
     Eigenvalues ---    0.16000   0.16000   0.16000   0.16000   0.16000
     Eigenvalues ---    0.16000   0.16000   0.16000   0.16000   0.16001
     Eigenvalues ---    0.16001   0.16002   0.16004   0.16006   0.16011
     Eigenvalues ---    0.16030   0.16034   0.16056   0.16093   0.16163
     Eigenvalues ---    0.16182   0.16577   0.17320   0.18794   0.21017
     Eigenvalues ---    0.21869   0.22018   0.22241   0.22428   0.22439
     Eigenvalues ---    0.22449   0.22452   0.22479   0.22953   0.23408
     Eigenvalues ---    0.23493   0.23497   0.23502   0.23528   0.23586
     Eigenvalues ---    0.23692   0.23770   0.23998   0.24152   0.24571
     Eigenvalues ---    0.24592   0.24617   0.24642   0.24660   0.24828
     Eigenvalues ---    0.24885   0.24921   0.24941   0.24971   0.24983
     Eigenvalues ---    0.24991   0.24996   0.25002   0.25030   0.25059
     Eigenvalues ---    0.25423   0.25540   0.25685   0.25994   0.26879
     Eigenvalues ---    0.27186   0.27368   0.27983   0.28002   0.28016
     Eigenvalues ---    0.28018   0.28018   0.28020   0.28022   0.28024
     Eigenvalues ---    0.28042   0.28045   0.28091   0.28189   0.28480
     Eigenvalues ---    0.28497   0.28537   0.28547   0.28554   0.28557
     Eigenvalues ---    0.28559   0.28561   0.28574   0.28585   0.28671
     Eigenvalues ---    0.29305   0.31522   0.33236   0.33701   0.34192
     Eigenvalues ---    0.34197   0.34204   0.34204   0.34207   0.34208
     Eigenvalues ---    0.34210   0.34210   0.34211   0.34213   0.34218
     Eigenvalues ---    0.34229   0.34285   0.34289   0.34293   0.34296
     Eigenvalues ---    0.34299   0.34301   0.34304   0.34307   0.34313
     Eigenvalues ---    0.34319   0.34327   0.34329   0.34336   0.34338
     Eigenvalues ---    0.34341   0.34343   0.34345   0.34350   0.34351
     Eigenvalues ---    0.34351   0.34355   0.34356   0.34357   0.34359
     Eigenvalues ---    0.34361   0.34362   0.34363   0.34380   0.34382
     Eigenvalues ---    0.34400   0.34402   0.34405   0.34409   0.34410
     Eigenvalues ---    0.34411   0.34415   0.34419   0.34423   0.34428
     Eigenvalues ---    0.34460   0.34514   0.34636   0.34859   0.35346
     Eigenvalues ---    0.35348   0.35352   0.35356   0.35385   0.35466
     Eigenvalues ---    0.35479   0.35489   0.35506   0.35512   0.35534
     Eigenvalues ---    0.35546   0.35571   0.35571   0.35579   0.35595
     Eigenvalues ---    0.35628   0.35637   0.35647   0.35679   0.35685
     Eigenvalues ---    0.35701   0.35730   0.35795   0.35959   0.36276
     Eigenvalues ---    0.36561   0.37339   0.37971   0.38074   0.38493
     Eigenvalues ---    0.39719   0.40388   0.40413   0.41291   0.42196
     Eigenvalues ---    0.42252   0.42296   0.42314   0.42432   0.42466
     Eigenvalues ---    0.42538   0.42574   0.42829   0.42992   0.43164
     Eigenvalues ---    0.43209   0.43394   0.43782   0.44054   0.44096
     Eigenvalues ---    0.44334   0.44415   0.44481   0.44721   0.44913
     Eigenvalues ---    0.45205   0.45421   0.45522   0.45632   0.45646
     Eigenvalues ---    0.45742   0.45820   0.45888   0.46268   0.46407
     Eigenvalues ---    0.46517   0.46613   0.46641   0.46678   0.46728
     Eigenvalues ---    0.46745   0.46762   0.46796   0.46854   0.46886
     Eigenvalues ---    0.46951   0.47017   0.47081   0.47476   0.50004
     Eigenvalues ---    0.55104   0.65375   0.88713   0.89636   1.54637
 Eigenvalue     1 is   1.11D-05 Eigenvector:
                         D257      D256      D258      D254      D253
   1                    0.23632   0.23257   0.22987   0.22755   0.22380
                         D251      D255      D250      D252      D185
   1                    0.22148   0.22110   0.21773   0.21503   0.21018
 En-DIIS/RFO-DIIS/Sim-DIIS IScMMF=       -3 using points:    27   26   25   24   23   22   21   20
 RFO step:  Lambda=-3.56160674D-06.
 NNeg= 0 NGDIIS= 8 SimSw=  2.50D-03 Rises=T DC=  4.79D-07 SmlDif=  1.00D-05
 NRisDI= 1 DoIntr=F SqrtH=F CThrHd= 10.0 CDAdj=  3.0
 RMS Error=  0.2809448532D-02 NUsed= 8 OKEnD=T EnDIS=T
 InvSVX:  RCond= 5.51D-08 Info=           0 Equed=N FErr=  3.89D-11 BErr=  1.00D-16
 DIIS inversion failure, remove point   8.
 InvSVX:  RCond= 7.85D-08 Info=           0 Equed=N FErr=  2.81D-11 BErr=  9.05D-17
 DIIS inversion failure, remove point   7.
 InvSVX:  RCond= 1.31D-06 Info=           0 Equed=N FErr=  2.66D-12 BErr=  4.45D-17
 RFO-DIIS uses    6 points instead of    8
 EnCoef did   100 forward-backward iterations
 IWarn =    2
 Energies =   -3503.67233409      -3503.67240803      -3503.67240845      -3503.67167980      -3503.67238818    
 Energies =   -3503.67240729      -3503.67240828      -3503.67240780    
 Point number   4 has energy  -0.3503671680D+04 and has been removed
 EnCoef did   100 forward-backward iterations
 IWarn =    2
 Energies =   -3503.67233409      -3503.67240803      -3503.67240845      -3503.67238818      -3503.67240729    
 Energies =   -3503.67240828      -3503.67240780    
 Point number   1 has energy  -0.3503672334D+04 and has been removed
 EnCoef did   100 forward-backward iterations
 IWarn =    2
 Energies =   -3503.67240803      -3503.67240845      -3503.67238818      -3503.67240729      -3503.67240828    
 Energies =   -3503.67240780    
 Point number   3 has energy  -0.3503672388D+04 and has been removed
 EnCoef did   100 forward-backward iterations
 IWarn =    2
 Energies =   -3503.67240803      -3503.67240845      -3503.67240729      -3503.67240828      -3503.67240780    
 Point number   3 has energy  -0.3503672407D+04 and has been removed
 EnCoef did    10 forward-backward iterations
 IWarn =    0
 DidBck=T Rises=T En-DIIS coefs:    0.40321    0.39322    0.00000    0.00000    0.00000
                  En-DIIS coefs:    0.01648    0.18708    0.00000
 Iteration  1 RMS(Cart)=  0.01060184 RMS(Int)=  0.00002874
 Iteration  2 RMS(Cart)=  0.00004612 RMS(Int)=  0.00000042
 Iteration  3 RMS(Cart)=  0.00000001 RMS(Int)=  0.00000042
 ITry= 1 IFail=0 DXMaxC= 7.34D-02 DCOld= 1.00D+10 DXMaxT= 5.00D-02 DXLimC= 3.00D+00 Rises=F
 Variable       Old X    -DE/DX   Delta X   Delta X   Delta X     New X
                                 (Linear)    (Quad)   (Total)
    R1        2.62504   0.00002   0.00003  -0.00021  -0.00017   2.62486
    R2        2.66379   0.00002   0.00005  -0.00004   0.00001   2.66380
    R3        2.64805  -0.00004  -0.00007   0.00014   0.00007   2.64812
    R4        2.62880  -0.00001  -0.00001  -0.00004  -0.00005   2.62875
    R5        2.66702  -0.00001   0.00000  -0.00001  -0.00001   2.66701
    R6        2.65147  -0.00004  -0.00003   0.00023   0.00020   2.65167
    R7        2.63126   0.00001   0.00002  -0.00004  -0.00002   2.63124
    R8        2.04639  -0.00000  -0.00001   0.00003   0.00002   2.04640
    R9        2.74134  -0.00000  -0.00001   0.00009   0.00008   2.74142
   R10        2.63360  -0.00001  -0.00001  -0.00010  -0.00012   2.63349
   R11        2.63574   0.00001   0.00002  -0.00004  -0.00002   2.63572
   R12        2.04876   0.00001   0.00001  -0.00001   0.00000   2.04876
   R13        2.63231  -0.00000  -0.00000  -0.00002  -0.00003   2.63229
   R14        2.66036   0.00001   0.00002  -0.00030  -0.00029   2.66008
   R15        2.04546   0.00000  -0.00000   0.00009   0.00008   2.04555
   R16        2.64488   0.00001   0.00005  -0.00014  -0.00009   2.64480
   R17        2.05108  -0.00000  -0.00000   0.00003   0.00003   2.05110
   R18        2.65919   0.00001   0.00000  -0.00011  -0.00011   2.65908
   R19        2.04652  -0.00000  -0.00000   0.00001   0.00001   2.04653
   R20        2.64645   0.00001   0.00003  -0.00005  -0.00002   2.64643
   R21        2.05108  -0.00000  -0.00000   0.00001   0.00001   2.05109
   R22        2.90923  -0.00002  -0.00003  -0.00008  -0.00011   2.90912
   R23        2.90968  -0.00000  -0.00001   0.00006   0.00006   2.90974
   R24        2.67456   0.00001   0.00016  -0.00079  -0.00063   2.67393
   R25        2.64188   0.00002   0.00001  -0.00084  -0.00083   2.64105
   R26        2.65584  -0.00002  -0.00000  -0.00037  -0.00037   2.65547
   R27        2.64173  -0.00002  -0.00008   0.00006  -0.00002   2.64171
   R28        2.65866  -0.00002   0.00002  -0.00002  -0.00001   2.65866
   R29        2.62646  -0.00000   0.00006   0.00049   0.00055   2.62700
   R30        2.04818  -0.00000  -0.00000   0.00002   0.00002   2.04820
   R31        2.64897  -0.00000   0.00010  -0.00092  -0.00082   2.64814
   R32        3.42620  -0.00011  -0.00021   0.00033   0.00012   3.42632
   R33        2.62944  -0.00001  -0.00002   0.00032   0.00030   2.62974
   R34        2.67949   0.00001   0.00002  -0.00002  -0.00000   2.67949
   R35        2.04768   0.00000   0.00000   0.00003   0.00003   2.04771
   R36        2.59636  -0.00001   0.00009  -0.00036  -0.00027   2.59609
   R37        2.76401   0.00001   0.00000   0.00017   0.00018   2.76418
   R38        2.61770  -0.00013  -0.00025   0.00061   0.00036   2.61807
   R39        2.57778   0.00010   0.00029  -0.00018   0.00011   2.57789
   R40        2.70055  -0.00014  -0.00041  -0.00057  -0.00098   2.69957
   R41        2.66487  -0.00006  -0.00007  -0.00105  -0.00112   2.66375
   R42        2.66040   0.00000  -0.00011   0.00027   0.00016   2.66056
   R43        2.04558  -0.00001  -0.00001  -0.00004  -0.00005   2.04553
   R44        2.62952  -0.00016   0.00002  -0.00063  -0.00061   2.62891
   R45        2.71600  -0.00006  -0.00019   0.00009  -0.00010   2.71591
   R46        2.75232  -0.00001   0.00002   0.00020   0.00022   2.75254
   R47        2.04629  -0.00003   0.00002   0.00026   0.00027   2.04656
   R48        2.72774  -0.00000  -0.00005   0.00040   0.00034   2.72808
   R49        2.72720   0.00001   0.00011  -0.00008   0.00003   2.72723
   R50        2.04677   0.00001   0.00002  -0.00013  -0.00012   2.04665
   R51        2.59865  -0.00001   0.00007  -0.00036  -0.00029   2.59835
   R52        2.04458   0.00001   0.00000   0.00001   0.00002   2.04459
   R53        2.62861  -0.00008  -0.00026  -0.00087  -0.00113   2.62748
   R54        2.04457   0.00000   0.00000  -0.00003  -0.00002   2.04455
   R55        2.66811   0.00006   0.00042   0.00098   0.00140   2.66951
   R56        2.04737   0.00001   0.00002  -0.00017  -0.00016   2.04721
   R57        2.90183  -0.00013  -0.00020   0.00029   0.00009   2.90193
   R58        2.90944  -0.00006  -0.00014  -0.00014  -0.00028   2.90916
   R59        2.92085   0.00001   0.00001   0.00005   0.00006   2.92091
   R60        2.92045  -0.00000   0.00000   0.00005   0.00005   2.92050
   R61        2.90929   0.00000  -0.00000   0.00004   0.00003   2.90932
   R62        2.92104  -0.00000  -0.00000  -0.00003  -0.00003   2.92101
   R63        2.92094   0.00000   0.00000   0.00003   0.00003   2.92097
   R64        2.90946   0.00000  -0.00000   0.00002   0.00002   2.90948
   R65        2.92119  -0.00000   0.00001   0.00013   0.00014   2.92134
   R66        2.90865   0.00000  -0.00001   0.00006   0.00005   2.90870
   R67        2.92049  -0.00001  -0.00000   0.00022   0.00022   2.92071
   R68        2.92270  -0.00001  -0.00000   0.00009   0.00009   2.92279
   R69        2.90806   0.00002   0.00002  -0.00002  -0.00000   2.90806
   R70        2.92281  -0.00001  -0.00001   0.00014   0.00013   2.92294
   R71        3.37910  -0.00000   0.00006  -0.00063  -0.00057   3.37853
   R72        2.76534  -0.00001   0.00001   0.00042   0.00043   2.76577
   R73        2.77027   0.00002   0.00001  -0.00001  -0.00000   2.77027
   R74        2.63720  -0.00000   0.00001   0.00001   0.00002   2.63722
   R75        2.63187   0.00000   0.00001   0.00007   0.00008   2.63195
   R76        2.63125   0.00000   0.00001  -0.00008  -0.00007   2.63118
   R77        2.04856  -0.00000  -0.00000  -0.00001  -0.00001   2.04855
   R78        2.63335  -0.00001  -0.00000  -0.00005  -0.00005   2.63329
   R79        2.04745  -0.00000  -0.00000   0.00002   0.00002   2.04747
   R80        2.63808   0.00001   0.00001  -0.00001  -0.00000   2.63808
   R81        2.04901   0.00000   0.00000  -0.00005  -0.00005   2.04896
   R82        2.63517   0.00000   0.00001  -0.00013  -0.00012   2.63505
   R83        2.04743  -0.00000   0.00000   0.00004   0.00005   2.04748
   R84        2.04854   0.00001   0.00001  -0.00001  -0.00000   2.04854
   R85        2.06618   0.00001   0.00001   0.00008   0.00009   2.06627
   R86        2.06983  -0.00000  -0.00000  -0.00003  -0.00003   2.06980
   R87        2.06735   0.00000   0.00000   0.00002   0.00002   2.06737
   R88        2.06843  -0.00000  -0.00000   0.00007   0.00007   2.06850
   R89        2.06793   0.00000   0.00000  -0.00008  -0.00008   2.06785
   R90        2.06756   0.00000   0.00000  -0.00002  -0.00001   2.06755
   R91        2.06718   0.00000   0.00000   0.00004   0.00004   2.06723
   R92        2.06957  -0.00000  -0.00000  -0.00004  -0.00004   2.06953
   R93        2.06596   0.00000   0.00001  -0.00014  -0.00013   2.06583
   R94        2.06559   0.00001   0.00001   0.00003   0.00004   2.06563
   R95        2.06941  -0.00001  -0.00001  -0.00001  -0.00002   2.06939
   R96        2.06732   0.00000  -0.00000  -0.00000  -0.00000   2.06731
   R97        2.06798   0.00000  -0.00000   0.00004   0.00004   2.06802
   R98        2.06797   0.00000   0.00000  -0.00004  -0.00004   2.06794
   R99        2.06743  -0.00000  -0.00000  -0.00001  -0.00001   2.06742
   R100       2.06540   0.00002   0.00001  -0.00010  -0.00009   2.06531
   R101       2.06715   0.00000  -0.00000   0.00002   0.00002   2.06718
   R102       2.06945  -0.00001  -0.00001  -0.00002  -0.00003   2.06942
   R103       2.06647   0.00000   0.00000   0.00001   0.00001   2.06648
   R104       2.06974  -0.00000  -0.00000   0.00001   0.00001   2.06975
   R105       2.06735  -0.00000  -0.00000   0.00002   0.00002   2.06737
   R106       2.06970  -0.00000  -0.00000   0.00001   0.00001   2.06971
   R107       2.06636  -0.00000  -0.00000  -0.00002  -0.00002   2.06634
   R108       2.06728  -0.00000  -0.00000   0.00000   0.00000   2.06728
   R109       2.06815  -0.00000  -0.00000   0.00001   0.00001   2.06815
   R110       2.06833  -0.00000  -0.00000   0.00000   0.00000   2.06833
   R111       2.06759  -0.00000  -0.00000   0.00001   0.00001   2.06760
   R112       2.07000  -0.00000  -0.00000   0.00000  -0.00000   2.07000
   R113       2.06620   0.00001   0.00000   0.00001   0.00001   2.06621
   R114       2.06683   0.00001   0.00001   0.00003   0.00004   2.06687
   R115       2.06654   0.00000   0.00000  -0.00001  -0.00001   2.06653
   R116       2.06982  -0.00000  -0.00000   0.00000   0.00000   2.06983
   R117       2.06742  -0.00000  -0.00000   0.00001   0.00000   2.06743
   R118       2.06721   0.00000   0.00000   0.00006   0.00006   2.06726
   R119       2.06819   0.00000  -0.00000   0.00004   0.00004   2.06822
   R120       2.06779  -0.00000  -0.00000   0.00000  -0.00000   2.06779
   R121       2.64588  -0.00003  -0.00005   0.00009   0.00004   2.64592
   R122       2.64930  -0.00001  -0.00001   0.00019   0.00018   2.64948
   R123       2.62551   0.00001   0.00002  -0.00013  -0.00011   2.62539
   R124       2.66475   0.00001   0.00003  -0.00009  -0.00006   2.66469
   R125       2.62836  -0.00000  -0.00001   0.00002   0.00001   2.62838
   R126       2.66699  -0.00001   0.00000   0.00005   0.00005   2.66704
   R127       2.63155   0.00001   0.00000  -0.00001  -0.00000   2.63154
   R128       2.04674   0.00000  -0.00000   0.00004   0.00003   2.04678
   R129       2.74113  -0.00000  -0.00000   0.00003   0.00003   2.74116
   R130       2.63365  -0.00001  -0.00001  -0.00002  -0.00004   2.63362
   R131       2.63535   0.00000   0.00001   0.00001   0.00002   2.63537
   R132       2.04875   0.00000  -0.00000  -0.00001  -0.00001   2.04874
   R133       2.63273  -0.00000  -0.00001  -0.00004  -0.00005   2.63267
   R134       2.66022   0.00001   0.00002  -0.00018  -0.00016   2.66006
   R135       2.04560  -0.00000  -0.00000   0.00004   0.00004   2.04564
   R136       2.64510   0.00000   0.00002  -0.00006  -0.00004   2.64506
   R137       2.05115  -0.00000  -0.00000   0.00002   0.00002   2.05116
   R138       2.65990  -0.00000  -0.00001  -0.00007  -0.00008   2.65982
   R139       2.04639  -0.00000  -0.00000   0.00002   0.00002   2.04640
   R140       2.64608   0.00001   0.00002  -0.00006  -0.00004   2.64604
   R141       2.05116  -0.00000  -0.00000  -0.00000  -0.00000   2.05116
   R142       2.90937  -0.00001  -0.00002  -0.00003  -0.00004   2.90932
   R143       2.90980  -0.00000  -0.00000   0.00002   0.00002   2.90982
   R144       2.90936   0.00000   0.00000   0.00001   0.00001   2.90938
   R145       2.92039  -0.00000  -0.00000   0.00001   0.00001   2.92040
   R146       2.92086   0.00001   0.00001   0.00005   0.00006   2.92092
   R147       2.90939  -0.00000  -0.00000   0.00000  -0.00000   2.90939
   R148       2.92095  -0.00000   0.00000   0.00002   0.00002   2.92097
   R149       2.92100   0.00000   0.00000   0.00005   0.00005   2.92104
   R150       2.06737   0.00000  -0.00000   0.00003   0.00003   2.06740
   R151       2.06825   0.00000  -0.00000   0.00001   0.00001   2.06826
   R152       2.06781  -0.00000  -0.00000   0.00001   0.00001   2.06782
   R153       2.06743   0.00000  -0.00000   0.00000   0.00000   2.06743
   R154       2.06642   0.00000   0.00000  -0.00000  -0.00000   2.06642
   R155       2.06987  -0.00000  -0.00000   0.00000   0.00000   2.06988
   R156       2.06691   0.00001   0.00000   0.00002   0.00002   2.06693
   R157       2.07007  -0.00000  -0.00000   0.00001   0.00001   2.07008
   R158       2.06613   0.00001   0.00000  -0.00000   0.00000   2.06613
   R159       2.06795   0.00000  -0.00000   0.00001   0.00001   2.06796
   R160       2.06827  -0.00000  -0.00000   0.00001   0.00001   2.06828
   R161       2.06765  -0.00000  -0.00000   0.00001   0.00001   2.06765
   R162       2.06659   0.00000   0.00000   0.00001   0.00001   2.06660
   R163       2.06977  -0.00000  -0.00000   0.00001   0.00001   2.06978
   R164       2.06735  -0.00000  -0.00000   0.00005   0.00004   2.06740
   R165       2.06645  -0.00000  -0.00000  -0.00003  -0.00003   2.06642
   R166       2.06721  -0.00000  -0.00000   0.00000  -0.00000   2.06721
   R167       2.06976  -0.00000  -0.00000   0.00001   0.00001   2.06977
    A1        2.11379   0.00001   0.00002  -0.00016  -0.00014   2.11365
    A2        2.26406   0.00001  -0.00000   0.00029   0.00028   2.26435
    A3        1.90426  -0.00002  -0.00001  -0.00013  -0.00014   1.90412
    A4        2.11168   0.00002   0.00004   0.00012   0.00016   2.11184
    A5        2.26941  -0.00002  -0.00005   0.00008   0.00004   2.26945
    A6        1.90144   0.00001   0.00001  -0.00021  -0.00020   1.90124
    A7        2.05707  -0.00001  -0.00001   0.00009   0.00008   2.05714
    A8        2.12650   0.00000  -0.00000  -0.00006  -0.00006   2.12644
    A9        2.09957   0.00001   0.00002  -0.00003  -0.00002   2.09955
   A10        1.86543   0.00000  -0.00001   0.00005   0.00004   1.86548
   A11        2.08922  -0.00000  -0.00001   0.00002   0.00001   2.08922
   A12        2.32846   0.00000   0.00002  -0.00008  -0.00006   2.32841
   A13        2.05790  -0.00001  -0.00002  -0.00002  -0.00005   2.05786
   A14        2.12717  -0.00001  -0.00001   0.00008   0.00007   2.12724
   A15        2.09811   0.00002   0.00003  -0.00005  -0.00002   2.09809
   A16        1.86613  -0.00001  -0.00002   0.00012   0.00010   1.86623
   A17        2.08951  -0.00000  -0.00001  -0.00018  -0.00019   2.08932
   A18        2.32743   0.00002   0.00003   0.00007   0.00010   2.32753
   A19        2.14200  -0.00001  -0.00001   0.00003   0.00002   2.14202
   A20        2.04732   0.00000   0.00001   0.00001   0.00003   2.04735
   A21        2.09386   0.00000  -0.00000  -0.00005  -0.00005   2.09381
   A22        2.10362  -0.00000  -0.00001   0.00005   0.00004   2.10366
   A23        2.07809   0.00000   0.00001   0.00007   0.00008   2.07817
   A24        2.10147   0.00000   0.00000  -0.00012  -0.00012   2.10135
   A25        2.14260  -0.00001  -0.00001  -0.00003  -0.00004   2.14257
   A26        2.04860   0.00000  -0.00000  -0.00001  -0.00001   2.04859
   A27        2.09198   0.00000   0.00001   0.00004   0.00005   2.09202
   A28        2.10667  -0.00001  -0.00001   0.00010   0.00008   2.10676
   A29        2.07587   0.00000   0.00001   0.00008   0.00008   2.07595
   A30        2.10062   0.00000   0.00001  -0.00017  -0.00017   2.10046
   A31        2.05950   0.00001   0.00002  -0.00007  -0.00005   2.05945
   A32        2.13710   0.00001   0.00000  -0.00008  -0.00007   2.13703
   A33        2.08658  -0.00002  -0.00003   0.00015   0.00012   2.08670
   A34        2.05794   0.00000   0.00002   0.00002   0.00003   2.05797
   A35        2.13909   0.00000  -0.00001   0.00004   0.00004   2.13913
   A36        2.08615  -0.00000  -0.00001  -0.00006  -0.00007   2.08608
   A37        2.07539   0.00004   0.00001  -0.00037  -0.00036   2.07504
   A38        2.13777  -0.00012  -0.00006   0.00033   0.00027   2.13804
   A39        2.06975   0.00008   0.00005   0.00001   0.00005   2.06980
   A40        2.07670   0.00003   0.00002  -0.00004  -0.00001   2.07669
   A41        2.13288  -0.00012  -0.00006  -0.00038  -0.00044   2.13243
   A42        2.07360   0.00009   0.00003   0.00042   0.00046   2.07406
   A43        2.11782  -0.00007  -0.00002   0.00061   0.00060   2.11842
   A44        2.08564   0.00003  -0.00001  -0.00047  -0.00048   2.08516
   A45        2.07873   0.00004   0.00002  -0.00015  -0.00013   2.07860
   A46        2.09367   0.00006  -0.00002  -0.00095  -0.00097   2.09269
   A47        2.03388   0.00016   0.00003  -0.00067  -0.00063   2.03325
   A48        2.15539  -0.00022  -0.00001   0.00162   0.00161   2.15700
   A49        2.07564   0.00001   0.00005   0.00026   0.00031   2.07595
   A50        2.13958  -0.00017  -0.00005   0.00166   0.00161   2.14119
   A51        2.06727   0.00015  -0.00002  -0.00189  -0.00191   2.06535
   A52        2.12659  -0.00006  -0.00005   0.00052   0.00048   2.12706
   A53        2.08165   0.00003   0.00003  -0.00019  -0.00017   2.08148
   A54        2.07464   0.00004   0.00002  -0.00032  -0.00030   2.07434
   A55        2.13009   0.00004   0.00015   0.00012   0.00027   2.13036
   A56        2.28294  -0.00002  -0.00011   0.00034   0.00023   2.28317
   A57        1.87015  -0.00001  -0.00004  -0.00045  -0.00050   1.86965
   A58        2.13850  -0.00006  -0.00009   0.00043   0.00034   2.13884
   A59        2.26014  -0.00005  -0.00022  -0.00039  -0.00061   2.25952
   A60        1.88423   0.00011   0.00030  -0.00008   0.00021   1.88444
   A61        2.04922  -0.00004  -0.00013   0.00004  -0.00010   2.04912
   A62        2.12155   0.00002  -0.00001   0.00038   0.00037   2.12191
   A63        2.11190   0.00002   0.00014  -0.00043  -0.00029   2.11162
   A64        1.88110   0.00005   0.00010  -0.00017  -0.00008   1.88102
   A65        2.06881   0.00002   0.00002  -0.00030  -0.00029   2.06852
   A66        2.33323  -0.00007  -0.00011   0.00048   0.00037   2.33360
   A67        2.04862   0.00005   0.00011  -0.00032  -0.00021   2.04840
   A68        2.13494  -0.00006  -0.00028  -0.00048  -0.00077   2.13417
   A69        2.09918   0.00001   0.00016   0.00097   0.00113   2.10030
   A70        1.88312  -0.00008  -0.00024   0.00048   0.00024   1.88336
   A71        2.07083   0.00004   0.00010  -0.00001   0.00009   2.07092
   A72        2.32921   0.00004   0.00014  -0.00047  -0.00033   2.32888
   A73        2.14295  -0.00002  -0.00006  -0.00007  -0.00013   2.14283
   A74        2.05975   0.00000   0.00001   0.00013   0.00013   2.05988
   A75        2.08041   0.00002   0.00005  -0.00005  -0.00000   2.08040
   A76        2.09159  -0.00005  -0.00014   0.00031   0.00017   2.09177
   A77        2.06910   0.00005   0.00017   0.00014   0.00031   2.06941
   A78        2.12245   0.00001  -0.00003  -0.00045  -0.00048   2.12197
   A79        2.14060  -0.00003  -0.00007   0.00035   0.00028   2.14088
   A80        2.04001   0.00005   0.00022  -0.00028  -0.00006   2.03995
   A81        2.10256  -0.00003  -0.00014  -0.00007  -0.00021   2.10235
   A82        2.09412   0.00000  -0.00003  -0.00038  -0.00041   2.09371
   A83        2.07562   0.00001   0.00011   0.00040   0.00051   2.07613
   A84        2.11335  -0.00001  -0.00008  -0.00001  -0.00010   2.11326
   A85        2.08348   0.00006   0.00017  -0.00007   0.00009   2.08357
   A86        2.06076  -0.00000  -0.00001  -0.00006  -0.00007   2.06069
   A87        2.13895  -0.00006  -0.00015   0.00013  -0.00003   2.13892
   A88        2.07356  -0.00001  -0.00002  -0.00004  -0.00006   2.07351
   A89        2.13592  -0.00003  -0.00000   0.00061   0.00061   2.13653
   A90        2.07365   0.00004   0.00002  -0.00060  -0.00058   2.07307
   A91        1.90528  -0.00001  -0.00002   0.00004   0.00002   1.90530
   A92        1.91268  -0.00000  -0.00002   0.00011   0.00010   1.91278
   A93        1.96140   0.00000   0.00000  -0.00021  -0.00021   1.96119
   A94        1.91161   0.00000   0.00001   0.00000   0.00001   1.91162
   A95        1.88540   0.00000   0.00001   0.00004   0.00006   1.88545
   A96        1.88686  -0.00000   0.00001   0.00002   0.00003   1.88688
   A97        1.90909  -0.00000  -0.00001  -0.00004  -0.00006   1.90904
   A98        1.90969   0.00000  -0.00000   0.00009   0.00009   1.90978
   A99        1.96184   0.00000   0.00000  -0.00000   0.00000   1.96184
   A100       1.91056   0.00000   0.00000   0.00001   0.00001   1.91058
   A101       1.88603   0.00000   0.00000   0.00004   0.00004   1.88607
   A102       1.88597  -0.00000   0.00000  -0.00009  -0.00009   1.88588
   A103       1.88736   0.00002   0.00002   0.00014   0.00015   1.88751
   A104       2.20861   0.00000   0.00001   0.00032   0.00033   2.20895
   A105       2.17614  -0.00002  -0.00002  -0.00027  -0.00029   2.17585
   A106       2.20803   0.00001   0.00004  -0.00039  -0.00035   2.20769
   A107       2.14484   0.00007  -0.00004   0.00050   0.00046   2.14530
   A108       1.90439  -0.00007  -0.00013   0.00027   0.00014   1.90453
   A109       1.90625  -0.00001  -0.00005  -0.00064  -0.00069   1.90556
   A110       1.96296  -0.00001   0.00001   0.00044   0.00045   1.96341
   A111       1.91163   0.00000  -0.00006   0.00105   0.00099   1.91262
   A112       1.88750   0.00001   0.00005   0.00010   0.00015   1.88765
   A113       1.90969   0.00000   0.00001  -0.00032  -0.00031   1.90938
   A114       1.88513   0.00000   0.00004  -0.00066  -0.00061   1.88451
   A115       1.90776  -0.00000  -0.00011   0.00005  -0.00006   1.90770
   A116       1.96136  -0.00001   0.00000  -0.00001  -0.00001   1.96135
   A117       1.90726  -0.00002  -0.00014   0.00059   0.00045   1.90771
   A118       1.88692   0.00001   0.00012  -0.00011   0.00001   1.88693
   A119       1.91270  -0.00000   0.00001  -0.00005  -0.00004   1.91267
   A120       1.88734   0.00003   0.00013  -0.00049  -0.00036   1.88698
   A121       1.82662  -0.00057  -0.00017   0.00157   0.00140   1.82802
   A122       1.88804   0.00018   0.00021  -0.00122  -0.00101   1.88703
   A123       1.84263   0.00012   0.00003   0.00055   0.00058   1.84321
   A124       1.89678   0.00008  -0.00011   0.00006  -0.00005   1.89673
   A125       1.88851   0.00017   0.00007  -0.00066  -0.00060   1.88791
   A126       2.10210  -0.00006  -0.00005  -0.00002  -0.00006   2.10204
   A127       2.07539  -0.00001   0.00004   0.00006   0.00010   2.07548
   A128       2.07988   0.00000  -0.00001  -0.00010  -0.00011   2.07976
   A129       2.12792   0.00001  -0.00003   0.00003   0.00000   2.12792
   A130       2.07220  -0.00001   0.00002  -0.00002  -0.00000   2.07220
   A131       2.09962   0.00000  -0.00002  -0.00015  -0.00017   2.09946
   A132       2.11129   0.00001  -0.00001   0.00019   0.00018   2.11147
   A133       2.07201   0.00000   0.00002  -0.00009  -0.00007   2.07194
   A134       2.08979   0.00000  -0.00001   0.00012   0.00011   2.08990
   A135       2.12127  -0.00001  -0.00001  -0.00007  -0.00008   2.12119
   A136       2.09522   0.00000   0.00000  -0.00005  -0.00005   2.09517
   A137       2.09004  -0.00000  -0.00000   0.00000   0.00000   2.09004
   A138       2.09792  -0.00000  -0.00000   0.00005   0.00005   2.09797
   A139       2.09626  -0.00000   0.00001   0.00001   0.00002   2.09628
   A140       2.08794  -0.00000  -0.00001   0.00001  -0.00000   2.08794
   A141       2.09888   0.00001   0.00000  -0.00005  -0.00005   2.09883
   A142       2.10270   0.00000  -0.00002   0.00007   0.00005   2.10275
   A143       2.08934   0.00000   0.00002   0.00008   0.00009   2.08943
   A144       2.09115  -0.00000   0.00001  -0.00015  -0.00015   2.09100
   A145       1.95102  -0.00000   0.00001  -0.00062  -0.00061   1.95042
   A146       1.92843  -0.00000  -0.00002   0.00022   0.00020   1.92863
   A147       1.93225   0.00000  -0.00001  -0.00007  -0.00008   1.93217
   A148       1.88052   0.00000   0.00000   0.00040   0.00040   1.88091
   A149       1.88037   0.00000   0.00000  -0.00002  -0.00002   1.88035
   A150       1.88904   0.00000   0.00001   0.00012   0.00013   1.88917
   A151       1.94962  -0.00000  -0.00002  -0.00004  -0.00006   1.94956
   A152       1.95067  -0.00000  -0.00002   0.00026   0.00024   1.95091
   A153       1.91487   0.00000   0.00001  -0.00002  -0.00001   1.91486
   A154       1.89163   0.00000  -0.00001   0.00007   0.00006   1.89169
   A155       1.87806   0.00000   0.00002   0.00020   0.00022   1.87828
   A156       1.87608   0.00000   0.00002  -0.00049  -0.00047   1.87561
   A157       1.93277  -0.00000  -0.00001   0.00009   0.00007   1.93284
   A158       1.92773  -0.00001  -0.00003  -0.00025  -0.00028   1.92745
   A159       1.95388   0.00001   0.00002   0.00055   0.00057   1.95445
   A160       1.88700   0.00000   0.00002  -0.00012  -0.00010   1.88691
   A161       1.88133  -0.00000   0.00001  -0.00001   0.00000   1.88133
   A162       1.87873  -0.00000   0.00001  -0.00029  -0.00029   1.87844
   A163       1.95593   0.00001   0.00002  -0.00018  -0.00016   1.95576
   A164       1.92318  -0.00002  -0.00006   0.00008   0.00002   1.92320
   A165       1.93296   0.00001   0.00002  -0.00006  -0.00004   1.93292
   A166       1.87879   0.00000   0.00001   0.00011   0.00012   1.87892
   A167       1.88206  -0.00000   0.00001  -0.00003  -0.00002   1.88204
   A168       1.88864   0.00000   0.00000   0.00009   0.00009   1.88873
   A169       1.94958   0.00000  -0.00000  -0.00009  -0.00009   1.94949
   A170       1.94975   0.00000  -0.00000   0.00007   0.00006   1.94981
   A171       1.91415  -0.00000   0.00000  -0.00001  -0.00001   1.91414
   A172       1.89292  -0.00001  -0.00002   0.00009   0.00007   1.89299
   A173       1.87708  -0.00000   0.00001   0.00012   0.00014   1.87722
   A174       1.87751   0.00000   0.00002  -0.00018  -0.00016   1.87736
   A175       1.95639  -0.00000  -0.00000   0.00028   0.00028   1.95666
   A176       1.93301   0.00001   0.00002  -0.00004  -0.00002   1.93298
   A177       1.92298  -0.00001  -0.00005  -0.00006  -0.00011   1.92287
   A178       1.88089  -0.00000   0.00001  -0.00001  -0.00000   1.88088
   A179       1.87938   0.00001   0.00002  -0.00013  -0.00011   1.87927
   A180       1.88891   0.00000   0.00001  -0.00005  -0.00004   1.88886
   A181       1.95148  -0.00000   0.00001  -0.00010  -0.00009   1.95139
   A182       1.92826  -0.00000  -0.00001   0.00006   0.00005   1.92831
   A183       1.93328  -0.00000  -0.00000  -0.00002  -0.00002   1.93326
   A184       1.87896   0.00000  -0.00000   0.00006   0.00006   1.87903
   A185       1.88173   0.00000   0.00000  -0.00002  -0.00002   1.88171
   A186       1.88781   0.00000  -0.00000   0.00002   0.00002   1.88782
   A187       1.92771  -0.00000  -0.00001   0.00001  -0.00000   1.92771
   A188       1.95186   0.00000   0.00001   0.00004   0.00004   1.95190
   A189       1.93392  -0.00000   0.00000  -0.00003  -0.00003   1.93389
   A190       1.87855  -0.00000  -0.00000  -0.00003  -0.00003   1.87853
   A191       1.88885   0.00000  -0.00000   0.00000  -0.00000   1.88885
   A192       1.88063  -0.00000   0.00000   0.00001   0.00001   1.88064
   A193       1.95152  -0.00000   0.00000  -0.00001  -0.00001   1.95151
   A194       1.95205   0.00000   0.00000   0.00002   0.00002   1.95207
   A195       1.91358  -0.00000  -0.00000   0.00002   0.00002   1.91360
   A196       1.89235  -0.00000   0.00000  -0.00001  -0.00001   1.89234
   A197       1.87608   0.00000   0.00000   0.00005   0.00005   1.87614
   A198       1.87513  -0.00000  -0.00000  -0.00007  -0.00007   1.87506
   A199       1.92858   0.00000  -0.00000   0.00004   0.00003   1.92861
   A200       1.95058   0.00000   0.00000  -0.00003  -0.00002   1.95055
   A201       1.93202   0.00000   0.00001  -0.00001   0.00000   1.93202
   A202       1.87976  -0.00000  -0.00001   0.00005   0.00004   1.87980
   A203       1.89052  -0.00000  -0.00000   0.00001   0.00001   1.89053
   A204       1.88021  -0.00000  -0.00000  -0.00006  -0.00006   1.88015
   A205       1.95223  -0.00000  -0.00000   0.00002   0.00002   1.95225
   A206       1.92765  -0.00000  -0.00001   0.00001  -0.00000   1.92765
   A207       1.93398   0.00000   0.00000  -0.00003  -0.00003   1.93396
   A208       1.87816   0.00000   0.00000  -0.00001  -0.00001   1.87815
   A209       1.88080   0.00000   0.00000   0.00001   0.00001   1.88081
   A210       1.88867   0.00000   0.00000   0.00001   0.00001   1.88868
   A211       1.95040  -0.00000   0.00000   0.00004   0.00004   1.95044
   A212       1.95201  -0.00000   0.00000  -0.00009  -0.00009   1.95193
   A213       1.91336  -0.00000  -0.00001   0.00006   0.00006   1.91342
   A214       1.89265   0.00000   0.00000  -0.00006  -0.00006   1.89259
   A215       1.87677   0.00000  -0.00000  -0.00005  -0.00005   1.87672
   A216       1.87561   0.00000   0.00000   0.00010   0.00010   1.87571
   A217       2.20301  -0.00002  -0.00002   0.00021   0.00019   2.20319
   A218       2.18333   0.00000   0.00001  -0.00030  -0.00029   2.18304
   A219       1.88821   0.00001   0.00001   0.00005   0.00006   1.88827
   A220       2.26482   0.00000  -0.00001   0.00018   0.00016   2.26499
   A221       1.90403  -0.00001   0.00000  -0.00002  -0.00002   1.90401
   A222       2.11352   0.00001   0.00002  -0.00014  -0.00012   2.11340
   A223       2.26797  -0.00001  -0.00002   0.00009   0.00007   2.26804
   A224       1.90170   0.00000   0.00001  -0.00017  -0.00016   1.90154
   A225       2.11289   0.00000   0.00002   0.00006   0.00008   2.11297
   A226       2.05751  -0.00001  -0.00001   0.00011   0.00010   2.05761
   A227       2.12621   0.00000  -0.00001  -0.00011  -0.00013   2.12608
   A228       2.09942   0.00001   0.00002  -0.00000   0.00002   2.09944
   A229       1.86502   0.00000  -0.00001   0.00001  -0.00000   1.86502
   A230       2.08883  -0.00000  -0.00001   0.00002   0.00001   2.08884
   A231       2.32928   0.00000   0.00002  -0.00003  -0.00001   2.32927
   A232       2.05707  -0.00000  -0.00001  -0.00003  -0.00004   2.05704
   A233       2.12615  -0.00000  -0.00001  -0.00002  -0.00003   2.12613
   A234       2.09996   0.00000   0.00002   0.00004   0.00006   2.10002
   A235       1.86566  -0.00001  -0.00001   0.00011   0.00009   1.86575
   A236       2.08911   0.00000  -0.00001  -0.00011  -0.00011   2.08900
   A237       2.32830   0.00001   0.00002  -0.00000   0.00002   2.32832
   A238       2.14185  -0.00001  -0.00001  -0.00001  -0.00002   2.14183
   A239       2.04735   0.00000   0.00001   0.00004   0.00005   2.04740
   A240       2.09398   0.00000   0.00000  -0.00003  -0.00003   2.09394
   A241       2.10420  -0.00000  -0.00000   0.00006   0.00005   2.10425
   A242       2.07769   0.00000   0.00001   0.00003   0.00004   2.07773
   A243       2.10129  -0.00000  -0.00000  -0.00009  -0.00009   2.10120
   A244       2.14263  -0.00000  -0.00000  -0.00003  -0.00003   2.14260
   A245       2.04924   0.00000   0.00000  -0.00000   0.00000   2.04924
   A246       2.09131   0.00000   0.00000   0.00003   0.00003   2.09134
   A247       2.10608  -0.00000  -0.00001   0.00007   0.00006   2.10614
   A248       2.07630   0.00000   0.00000   0.00005   0.00005   2.07635
   A249       2.10079   0.00000   0.00000  -0.00012  -0.00012   2.10068
   A250       2.05944   0.00001   0.00002  -0.00008  -0.00006   2.05937
   A251       2.13724   0.00002   0.00001   0.00001   0.00002   2.13727
   A252       2.08651  -0.00003  -0.00003   0.00007   0.00004   2.08655
   A253       2.05853   0.00000   0.00001   0.00004   0.00005   2.05858
   A254       2.13844  -0.00000  -0.00001   0.00005   0.00004   2.13849
   A255       2.08621   0.00000  -0.00000  -0.00009  -0.00009   2.08612
   A256       1.96152   0.00001   0.00001  -0.00005  -0.00004   1.96148
   A257       1.91281   0.00000  -0.00001   0.00013   0.00012   1.91293
   A258       1.90540  -0.00001  -0.00003  -0.00009  -0.00012   1.90528
   A259       1.88658  -0.00000   0.00001  -0.00001   0.00000   1.88658
   A260       1.88544   0.00000   0.00001  -0.00001   0.00001   1.88545
   A261       1.91147   0.00000   0.00000   0.00002   0.00002   1.91150
   A262       1.96185  -0.00000  -0.00000  -0.00005  -0.00006   1.96179
   A263       1.90943  -0.00000  -0.00001  -0.00011  -0.00012   1.90931
   A264       1.90934   0.00000   0.00001   0.00019   0.00020   1.90954
   A265       1.88596   0.00000   0.00000   0.00007   0.00007   1.88603
   A266       1.88608  -0.00000  -0.00000  -0.00010  -0.00010   1.88597
   A267       1.91054   0.00000   0.00000   0.00000   0.00000   1.91054
   A268       1.95051  -0.00000   0.00000   0.00001   0.00001   1.95052
   A269       1.95165   0.00000   0.00000  -0.00001  -0.00000   1.95165
   A270       1.91350  -0.00000  -0.00001   0.00002   0.00001   1.91351
   A271       1.89253   0.00000   0.00000   0.00000   0.00001   1.89254
   A272       1.87681   0.00000  -0.00000  -0.00003  -0.00003   1.87677
   A273       1.87583   0.00000  -0.00000   0.00001   0.00000   1.87583
   A274       1.93402   0.00000   0.00000  -0.00003  -0.00002   1.93399
   A275       1.95208   0.00000   0.00000   0.00002   0.00002   1.95210
   A276       1.92793  -0.00000  -0.00001  -0.00000  -0.00001   1.92792
   A277       1.88057  -0.00000   0.00000   0.00001   0.00001   1.88058
   A278       1.88873   0.00000  -0.00000   0.00001   0.00001   1.88875
   A279       1.87816   0.00000   0.00000  -0.00001  -0.00001   1.87815
   A280       1.93200   0.00000   0.00001  -0.00003  -0.00002   1.93198
   A281       1.92888  -0.00000  -0.00000   0.00006   0.00005   1.92893
   A282       1.95023   0.00000   0.00000  -0.00002  -0.00002   1.95022
   A283       1.89060  -0.00000  -0.00000   0.00001   0.00001   1.89061
   A284       1.88017  -0.00000  -0.00000  -0.00008  -0.00008   1.88009
   A285       1.87978   0.00000  -0.00000   0.00005   0.00005   1.87983
   A286       1.95175  -0.00000  -0.00000  -0.00003  -0.00003   1.95172
   A287       1.95222   0.00000   0.00000   0.00001   0.00001   1.95222
   A288       1.91341  -0.00000  -0.00000   0.00002   0.00002   1.91343
   A289       1.89222  -0.00000   0.00000  -0.00002  -0.00001   1.89221
   A290       1.87596   0.00000   0.00000   0.00008   0.00008   1.87604
   A291       1.87514  -0.00000  -0.00000  -0.00006  -0.00006   1.87508
   A292       1.95167  -0.00000   0.00000  -0.00011  -0.00011   1.95156
   A293       1.92833  -0.00000  -0.00000   0.00005   0.00005   1.92837
   A294       1.93310  -0.00000  -0.00000   0.00005   0.00005   1.93315
   A295       1.87891   0.00000   0.00000   0.00006   0.00006   1.87897
   A296       1.88194   0.00000  -0.00000  -0.00006  -0.00006   1.88188
   A297       1.88757   0.00000   0.00000   0.00001   0.00002   1.88758
   A298       1.95175   0.00000   0.00001   0.00008   0.00009   1.95184
   A299       1.93370  -0.00000   0.00000  -0.00000  -0.00000   1.93370
   A300       1.92768  -0.00000  -0.00001  -0.00003  -0.00004   1.92764
   A301       1.88077  -0.00000   0.00000   0.00001   0.00002   1.88078
   A302       1.87873  -0.00000  -0.00000  -0.00006  -0.00006   1.87867
   A303       1.88891   0.00000  -0.00000   0.00000  -0.00000   1.88891
    D1        0.05026   0.00000   0.00007   0.00067   0.00073   0.05099
    D2       -3.10186  -0.00001  -0.00001   0.00043   0.00042  -3.10143
    D3        3.13645   0.00003   0.00035   0.00059   0.00094   3.13739
    D4       -0.01566   0.00002   0.00027   0.00036   0.00063  -0.01503
    D5        3.08689   0.00001  -0.00001  -0.00130  -0.00131   3.08558
    D6       -0.04354   0.00000  -0.00004  -0.00077  -0.00081  -0.04435
    D7       -0.00961  -0.00001  -0.00024  -0.00126  -0.00149  -0.01111
    D8       -3.14004  -0.00002  -0.00027  -0.00072  -0.00099  -3.14103
    D9       -3.07513  -0.00001  -0.00005   0.00197   0.00192  -3.07321
   D10        0.22076   0.00001  -0.00013   0.00072   0.00059   0.22136
   D11        0.01627   0.00001   0.00020   0.00190   0.00211   0.01838
   D12       -2.97102   0.00003   0.00013   0.00065   0.00078  -2.97024
   D13        0.01073   0.00000   0.00001  -0.00033  -0.00032   0.01042
   D14       -3.13301  -0.00000   0.00000   0.00009   0.00009  -3.13292
   D15        3.10892   0.00000   0.00002  -0.00049  -0.00047   3.10844
   D16       -0.03483   0.00000   0.00000  -0.00007  -0.00007  -0.03489
   D17        3.11702  -0.00001  -0.00006   0.00090   0.00083   3.11785
   D18       -0.01070   0.00000   0.00003   0.00022   0.00025  -0.01045
   D19        0.01057  -0.00001  -0.00006   0.00102   0.00096   0.01153
   D20       -3.11715   0.00000   0.00003   0.00034   0.00038  -3.11678
   D21       -3.11888  -0.00000  -0.00009  -0.00167  -0.00176  -3.12064
   D22       -0.12801  -0.00002  -0.00001  -0.00039  -0.00039  -0.12841
   D23       -0.01663  -0.00000  -0.00009  -0.00181  -0.00189  -0.01853
   D24        2.97424  -0.00002  -0.00001  -0.00052  -0.00053   2.97371
   D25       -0.02013   0.00000  -0.00001   0.00004   0.00003  -0.02010
   D26        3.11889  -0.00001  -0.00008  -0.00021  -0.00030   3.11859
   D27        3.13181   0.00001   0.00007   0.00027   0.00033   3.13215
   D28       -0.01235   0.00000  -0.00001   0.00002   0.00001  -0.01234
   D29       -0.00060   0.00001   0.00018   0.00014   0.00032  -0.00027
   D30        3.12443   0.00000   0.00007   0.00095   0.00102   3.12544
   D31        3.12765   0.00002   0.00022  -0.00050  -0.00027   3.12737
   D32       -0.03051   0.00001   0.00011   0.00031   0.00042  -0.03009
   D33        0.00493  -0.00001  -0.00004   0.00015   0.00011   0.00503
   D34       -3.13475   0.00001   0.00006   0.00017   0.00023  -3.13452
   D35       -3.12196  -0.00001  -0.00009   0.00086   0.00076  -3.12120
   D36        0.02155  -0.00000   0.00001   0.00087   0.00089   0.02244
   D37       -0.00356  -0.00000  -0.00004   0.00040   0.00036  -0.00320
   D38        3.13520  -0.00000  -0.00001   0.00022   0.00021   3.13542
   D39        3.14015  -0.00000  -0.00003  -0.00002  -0.00005   3.14010
   D40       -0.00428   0.00000   0.00000  -0.00019  -0.00019  -0.00447
   D41        0.00315  -0.00000  -0.00006  -0.00016  -0.00021   0.00294
   D42        3.13801  -0.00001  -0.00007  -0.00020  -0.00027   3.13775
   D43       -3.12019   0.00001   0.00007  -0.00105  -0.00098  -3.12117
   D44        0.01467   0.00001   0.00006  -0.00109  -0.00103   0.01364
   D45       -0.01674  -0.00001  -0.00008  -0.00063  -0.00071  -0.01745
   D46        3.12517  -0.00002  -0.00015  -0.00048  -0.00063   3.12454
   D47        3.12749   0.00000   0.00000  -0.00038  -0.00037   3.12711
   D48       -0.01378  -0.00001  -0.00007  -0.00023  -0.00030  -0.01408
   D49        0.02416   0.00001   0.00010   0.00052   0.00063   0.02479
   D50       -3.11774   0.00002   0.00017   0.00038   0.00055  -3.11719
   D51       -3.11938  -0.00000  -0.00001   0.00051   0.00050  -3.11888
   D52        0.02190   0.00000   0.00006   0.00036   0.00043   0.02233
   D53       -0.00366   0.00000   0.00002  -0.00034  -0.00032  -0.00397
   D54        3.14042   0.00000   0.00007  -0.00009  -0.00002   3.14040
   D55        3.14083  -0.00000  -0.00001  -0.00016  -0.00017   3.14066
   D56        0.00173   0.00000   0.00003   0.00009   0.00013   0.00185
   D57        0.00381   0.00000   0.00003   0.00021   0.00024   0.00405
   D58       -3.14019   0.00000  -0.00002  -0.00003  -0.00005  -3.14024
   D59       -3.13096   0.00000   0.00004   0.00025   0.00029  -3.13067
   D60        0.00823   0.00000  -0.00000   0.00001   0.00001   0.00823
   D61       -2.08530   0.00000   0.00000  -0.00161  -0.00160  -2.08691
   D62        2.10431   0.00000   0.00002  -0.00171  -0.00169   2.10262
   D63        0.00607   0.00000   0.00001  -0.00166  -0.00165   0.00442
   D64        1.05661  -0.00000  -0.00007  -0.00146  -0.00153   1.05509
   D65       -1.03696  -0.00000  -0.00006  -0.00156  -0.00161  -1.03857
   D66       -3.13520  -0.00000  -0.00006  -0.00151  -0.00158  -3.13677
   D67        2.08173   0.00000   0.00006   0.00391   0.00397   2.08570
   D68       -2.10866   0.00000   0.00006   0.00395   0.00401  -2.10465
   D69       -0.01330  -0.00000   0.00007   0.00390   0.00396  -0.00934
   D70       -1.05734   0.00000   0.00011   0.00416   0.00427  -1.05306
   D71        1.03546   0.00000   0.00010   0.00421   0.00431   1.03977
   D72        3.13082   0.00000   0.00011   0.00415   0.00426   3.13508
   D73        0.03490  -0.00003  -0.00017  -0.00091  -0.00109   0.03382
   D74       -3.10224  -0.00003  -0.00016  -0.00161  -0.00177  -3.10401
   D75       -3.13190  -0.00006  -0.00044  -0.00248  -0.00293  -3.13482
   D76        0.01414  -0.00006  -0.00043  -0.00318  -0.00361   0.01053
   D77       -0.01974  -0.00000   0.00004   0.00016   0.00020  -0.01954
   D78       -3.13418  -0.00001  -0.00012  -0.00017  -0.00029  -3.13446
   D79       -3.13712   0.00003   0.00030   0.00166   0.00196  -3.13516
   D80        0.03163   0.00002   0.00014   0.00134   0.00148   0.03311
   D81        0.88364  -0.00004   0.00004   0.00085   0.00088   0.88453
   D82       -2.07940  -0.00002  -0.00005  -0.00065  -0.00070  -2.08009
   D83       -2.28308  -0.00008  -0.00023  -0.00073  -0.00095  -2.28404
   D84        1.03707  -0.00005  -0.00032  -0.00222  -0.00254   1.03453
   D85       -0.02296   0.00003   0.00014   0.00071   0.00085  -0.02211
   D86       -3.11609   0.00004   0.00022   0.00086   0.00109  -3.11500
   D87        3.11433   0.00003   0.00013   0.00138   0.00151   3.11584
   D88        0.02121   0.00004   0.00021   0.00154   0.00175   0.02295
   D89        0.91071  -0.00006  -0.00007  -0.00048  -0.00055   0.91016
   D90       -2.07318  -0.00004  -0.00005  -0.00011  -0.00016  -2.07334
   D91       -2.22644  -0.00006  -0.00005  -0.00118  -0.00123  -2.22767
   D92        1.07285  -0.00004  -0.00003  -0.00081  -0.00084   1.07201
   D93       -0.00516   0.00000   0.00003   0.00024   0.00027  -0.00488
   D94        3.11331   0.00008   0.00044   0.00028   0.00072   3.11403
   D95        3.08816  -0.00000  -0.00005   0.00008   0.00003   3.08819
   D96       -0.07656   0.00008   0.00036   0.00012   0.00048  -0.07608
   D97        0.02079  -0.00004  -0.00017  -0.00099  -0.00116   0.01964
   D98       -3.07993   0.00001   0.00036  -0.00160  -0.00124  -3.08117
   D99       -3.09599  -0.00013  -0.00061  -0.00100  -0.00161  -3.09759
   D100       0.08647  -0.00008  -0.00008  -0.00161  -0.00168   0.08479
   D101       2.20427   0.00003  -0.00038  -0.00013  -0.00051   2.20376
   D102      -2.05889  -0.00009  -0.00050   0.00016  -0.00033  -2.05922
   D103       0.21309   0.00003  -0.00040  -0.00027  -0.00067   0.21241
   D104      -0.96135   0.00011   0.00005  -0.00013  -0.00008  -0.96143
   D105       1.05868  -0.00000  -0.00007   0.00016   0.00010   1.05878
   D106      -2.95253   0.00011   0.00003  -0.00027  -0.00025  -2.95278
   D107      -0.00822   0.00004   0.00013   0.00078   0.00092  -0.00731
   D108       3.10632   0.00004   0.00029   0.00111   0.00140   3.10771
   D109       3.09421  -0.00002  -0.00038   0.00145   0.00107   3.09528
   D110      -0.07444  -0.00001  -0.00022   0.00177   0.00155  -0.07288
   D111      -1.59446  -0.00014  -0.00104   0.00118   0.00013  -1.59432
   D112       1.81673  -0.00017  -0.00039  -0.00081  -0.00120   1.81553
   D113       1.58782  -0.00009  -0.00052   0.00052   0.00000   1.58782
   D114      -1.28418  -0.00012   0.00014  -0.00147  -0.00133  -1.28551
   D115      -0.01366  -0.00000   0.00004   0.00034   0.00038  -0.01329
   D116      -3.12112  -0.00000   0.00004   0.00090   0.00093  -3.12019
   D117       3.13040   0.00001  -0.00004  -0.00128  -0.00132   3.12908
   D118       0.02294   0.00000  -0.00004  -0.00072  -0.00076   0.02218
   D119      -3.10767  -0.00000  -0.00001  -0.00196  -0.00197  -3.10964
   D120       0.02433   0.00000  -0.00003  -0.00125  -0.00129   0.02304
   D121       0.03197  -0.00001   0.00006  -0.00068  -0.00062   0.03134
   D122      -3.11922  -0.00000   0.00003   0.00003   0.00006  -3.11917
   D123       0.18243  -0.00005   0.00046   0.00036   0.00082   0.18325
   D124       3.08505   0.00000  -0.00011   0.00217   0.00206   3.08711
   D125      -2.95698  -0.00004   0.00039  -0.00107  -0.00069  -2.95766
   D126      -0.05435   0.00001  -0.00018   0.00074   0.00055  -0.05380
   D127       0.01645  -0.00001  -0.00015  -0.00207  -0.00222   0.01423
   D128       3.12592   0.00000  -0.00058   0.00395   0.00336   3.12928
   D129      -3.09464   0.00003   0.00027   0.00024   0.00051  -3.09413
   D130       0.01483   0.00005  -0.00016   0.00625   0.00609   0.02092
   D131       3.13073   0.00002   0.00013   0.00197   0.00211   3.13284
   D132      -0.01730   0.00002   0.00014   0.00167   0.00181  -0.01550
   D133      -0.03561  -0.00001  -0.00022   0.00010  -0.00012  -0.03573
   D134       3.09954  -0.00002  -0.00021  -0.00021  -0.00042   3.09912
   D135      -0.19899   0.00000  -0.00065  -0.00098  -0.00164  -0.20062
   D136      -3.11204  -0.00003  -0.00012  -0.00257  -0.00269  -3.11472
   D137       2.96965   0.00004  -0.00027   0.00105   0.00078   2.97042
   D138       0.05660   0.00001   0.00026  -0.00054  -0.00027   0.05632
   D139      -0.00136  -0.00000  -0.00001   0.00041   0.00040  -0.00096
   D140      -3.12971   0.00000   0.00003  -0.00006  -0.00003  -3.12974
   D141       3.10629   0.00000  -0.00001  -0.00013  -0.00013   3.10616
   D142      -0.02205   0.00001   0.00003  -0.00060  -0.00057  -0.02262
   D143       0.00249   0.00001   0.00010   0.00033   0.00043   0.00293
   D144      -3.13131   0.00002   0.00009   0.00070   0.00080  -3.13051
   D145      -3.12744   0.00000   0.00013  -0.00052  -0.00039  -3.12782
   D146       0.02195   0.00001   0.00012  -0.00015  -0.00002   0.02192
   D147      -0.01958  -0.00000  -0.00000   0.00143   0.00142  -0.01816
   D148       3.13160  -0.00000   0.00007   0.00096   0.00102   3.13262
   D149       3.10937   0.00001  -0.00004   0.00235   0.00231   3.11168
   D150      -0.02264   0.00001   0.00004   0.00188   0.00192  -0.02072
   D151      -0.00515   0.00000   0.00010   0.00167   0.00177  -0.00338
   D152       3.13096   0.00001   0.00011   0.00125   0.00136   3.13232
   D153      -3.11531  -0.00001   0.00053  -0.00419  -0.00366  -3.11897
   D154       0.02080  -0.00001   0.00054  -0.00460  -0.00407   0.01673
   D155       0.00631  -0.00001  -0.00007  -0.00075  -0.00081   0.00550
   D156       3.13406  -0.00001  -0.00011  -0.00043  -0.00054   3.13352
   D157       3.13946  -0.00002  -0.00006  -0.00114  -0.00120   3.13825
   D158      -0.01598  -0.00001  -0.00010  -0.00083  -0.00093  -0.01691
   D159       0.00554   0.00000  -0.00003  -0.00022  -0.00025   0.00529
   D160      -3.13452   0.00000   0.00000  -0.00052  -0.00052  -3.13504
   D161       3.13374  -0.00000  -0.00007   0.00026   0.00019   3.13393
   D162      -0.00633   0.00000  -0.00003  -0.00004  -0.00007  -0.00640
   D163       0.00548   0.00000   0.00004  -0.00073  -0.00069   0.00479
   D164      -3.13771  -0.00000  -0.00000  -0.00041  -0.00041  -3.13813
   D165       3.13718   0.00000  -0.00004  -0.00024  -0.00027   3.13691
   D166      -0.00601  -0.00000  -0.00008   0.00008   0.00000  -0.00601
   D167      -0.00508   0.00000  -0.00004  -0.00082  -0.00086  -0.00594
   D168      -3.13570   0.00001   0.00006   0.00208   0.00214  -3.13356
   D169      -3.14100  -0.00000  -0.00004  -0.00040  -0.00044  -3.14144
   D170       0.01156   0.00000   0.00006   0.00251   0.00257   0.01413
   D171       0.00427   0.00000   0.00002   0.00036   0.00038   0.00466
   D172       3.13529  -0.00000  -0.00007  -0.00243  -0.00250   3.13279
   D173      -3.12317  -0.00000   0.00006   0.00004   0.00010  -3.12307
   D174       0.00785  -0.00001  -0.00003  -0.00275  -0.00278   0.00506
   D175      -1.04407   0.00000  -0.00025  -0.00217  -0.00242  -1.04650
   D176      -3.13900  -0.00001  -0.00033  -0.00206  -0.00239  -3.14139
   D177       1.04905  -0.00002  -0.00040  -0.00184  -0.00223   1.04682
   D178       2.09910   0.00000  -0.00022  -0.00248  -0.00270   2.09640
   D179       0.00417  -0.00000  -0.00029  -0.00237  -0.00266   0.00150
   D180      -2.09096  -0.00001  -0.00036  -0.00215  -0.00251  -2.09347
   D181       2.06007   0.00000   0.00049   0.01208   0.01257   2.07264
   D182      -0.03560  -0.00000   0.00045   0.01211   0.01256  -0.02304
   D183      -2.13195  -0.00000   0.00043   0.01194   0.01237  -2.11958
   D184      -1.07055   0.00001   0.00059   0.01498   0.01557  -1.05498
   D185       3.11697   0.00000   0.00055   0.01502   0.01556   3.13253
   D186       1.02062   0.00000   0.00053   0.01484   0.01537   1.03599
   D187       3.13114   0.00000   0.00002   0.00070   0.00072   3.13185
   D188      -1.05908   0.00000   0.00001   0.00076   0.00078  -1.05830
   D189       1.03680   0.00000   0.00002   0.00067   0.00069   1.03748
   D190      -1.05782  -0.00000  -0.00001   0.00086   0.00085  -1.05696
   D191       1.03515  -0.00000  -0.00001   0.00093   0.00091   1.03607
   D192       3.13103  -0.00000  -0.00001   0.00083   0.00083   3.13185
   D193       0.99348   0.00000   0.00002   0.00091   0.00093   0.99441
   D194       3.08645   0.00000   0.00001   0.00097   0.00098   3.08744
   D195      -1.10086   0.00000   0.00002   0.00088   0.00090  -1.09997
   D196       1.05279  -0.00000  -0.00002   0.00061   0.00059   1.05338
   D197      -3.13898  -0.00000  -0.00003   0.00062   0.00059  -3.13839
   D198      -1.04629  -0.00000  -0.00003   0.00061   0.00058  -1.04571
   D199      -1.03691   0.00000   0.00001   0.00049   0.00050  -1.03641
   D200       1.05451   0.00000   0.00000   0.00050   0.00050   1.05500
   D201      -3.13598   0.00000  -0.00000   0.00049   0.00049  -3.13550
   D202      -3.08729  -0.00000  -0.00002   0.00043   0.00041  -3.08688
   D203      -0.99588  -0.00000  -0.00003   0.00044   0.00041  -0.99547
   D204       1.09682  -0.00000  -0.00003   0.00043   0.00040   1.09722
   D205      -1.05989   0.00000  -0.00009  -0.00235  -0.00244  -1.06233
   D206       1.06576   0.00000  -0.00008  -0.00246  -0.00254   1.06321
   D207      -3.13887   0.00000  -0.00008  -0.00236  -0.00244  -3.14131
   D208       1.04300  -0.00000  -0.00010  -0.00241  -0.00251   1.04050
   D209      -3.11454  -0.00000  -0.00010  -0.00252  -0.00261  -3.11715
   D210      -1.03598  -0.00000  -0.00010  -0.00241  -0.00250  -1.03848
   D211       3.11018   0.00000  -0.00008  -0.00237  -0.00245   3.10773
   D212      -1.04736   0.00000  -0.00007  -0.00248  -0.00255  -1.04991
   D213       1.03120   0.00000  -0.00007  -0.00238  -0.00245   1.02875
   D214       1.04488  -0.00000  -0.00005  -0.00131  -0.00135   1.04352
   D215       3.13723  -0.00000  -0.00005  -0.00125  -0.00130   3.13593
   D216      -1.05440  -0.00000  -0.00005  -0.00121  -0.00126  -1.05565
   D217      -1.04738  -0.00000  -0.00004  -0.00140  -0.00144  -1.04882
   D218       1.04497  -0.00000  -0.00004  -0.00135  -0.00139   1.04359
   D219       3.13653  -0.00000  -0.00005  -0.00130  -0.00134   3.13519
   D220      -3.09740  -0.00000  -0.00005  -0.00132  -0.00136  -3.09876
   D221      -1.00505   0.00000  -0.00005  -0.00126  -0.00131  -1.00635
   D222       1.08651  -0.00000  -0.00005  -0.00121  -0.00127   1.08525
   D223       3.13594   0.00000  -0.00000  -0.00074  -0.00074   3.13520
   D224      -1.05554   0.00000  -0.00001  -0.00074  -0.00075  -1.05629
   D225       1.04303   0.00000   0.00000  -0.00073  -0.00072   1.04230
   D226      -1.05536  -0.00000  -0.00002  -0.00073  -0.00075  -1.05610
   D227       1.03635  -0.00000  -0.00002  -0.00074  -0.00076   1.03560
   D228       3.13492  -0.00000  -0.00001  -0.00072  -0.00073   3.13419
   D229       0.99470  -0.00000  -0.00001  -0.00073  -0.00074   0.99396
   D230       3.08641  -0.00000  -0.00001  -0.00074  -0.00075   3.08566
   D231      -1.09821   0.00000  -0.00000  -0.00072  -0.00072  -1.09894
   D232      -1.06034   0.00000   0.00008   0.00239   0.00246  -1.05787
   D233       1.06576   0.00000   0.00008   0.00238   0.00246   1.06822
   D234      -3.13931  -0.00000   0.00008   0.00232   0.00239  -3.13692
   D235       3.11451   0.00000   0.00009   0.00242   0.00251   3.11701
   D236      -1.04258   0.00000   0.00009   0.00241   0.00250  -1.04008
   D237       1.03553   0.00000   0.00009   0.00235   0.00244   1.03797
   D238       1.04871   0.00000   0.00008   0.00244   0.00252   1.05123
   D239      -3.10838   0.00000   0.00008   0.00243   0.00251  -3.10587
   D240      -1.03026   0.00000   0.00008   0.00237   0.00245  -1.02781
   D241       1.05147  -0.00000  -0.00014  -0.00239  -0.00253   1.04894
   D242      -3.13759  -0.00000  -0.00014  -0.00215  -0.00229  -3.13988
   D243      -1.04505  -0.00000  -0.00015  -0.00190  -0.00205  -1.04710
   D244      -3.09025  -0.00001  -0.00013  -0.00218  -0.00231  -3.09256
   D245      -0.99613  -0.00001  -0.00012  -0.00195  -0.00207  -0.99820
   D246       1.09640  -0.00001  -0.00013  -0.00170  -0.00183   1.09458
   D247      -1.04090   0.00000  -0.00004  -0.00309  -0.00313  -1.04403
   D248       1.05323   0.00000  -0.00004  -0.00285  -0.00289   1.05034
   D249      -3.13742   0.00000  -0.00005  -0.00260  -0.00265  -3.14007
   D250      -1.04961  -0.00000  -0.00011   0.01527   0.01516  -1.03445
   D251       1.07321  -0.00001  -0.00015   0.01552   0.01537   1.08857
   D252      -3.13070  -0.00000  -0.00013   0.01506   0.01493  -3.11576
   D253       3.12709   0.00000  -0.00009   0.01573   0.01564  -3.14045
   D254      -1.03328   0.00000  -0.00013   0.01598   0.01585  -1.01743
   D255       1.04601   0.00000  -0.00011   0.01552   0.01541   1.06142
   D256       1.06200  -0.00000  -0.00015   0.01641   0.01626   1.07826
   D257      -3.09837  -0.00001  -0.00019   0.01666   0.01647  -3.08190
   D258      -1.01908  -0.00001  -0.00017   0.01620   0.01603  -1.00305
   D259       1.05553   0.00000   0.00018  -0.00517  -0.00499   1.05055
   D260      -3.13777   0.00000   0.00017  -0.00542  -0.00525   3.14016
   D261      -1.04449   0.00000   0.00017  -0.00559  -0.00543  -1.04992
   D262      -3.13859  -0.00001   0.00008  -0.00550  -0.00542   3.13918
   D263      -1.04871  -0.00001   0.00008  -0.00576  -0.00568  -1.05439
   D264       1.04457  -0.00001   0.00007  -0.00593  -0.00586   1.03871
   D265      -1.08774   0.00001   0.00017  -0.00594  -0.00576  -1.09350
   D266       1.00214   0.00001   0.00017  -0.00619  -0.00602   0.99611
   D267       3.09542   0.00001   0.00016  -0.00636  -0.00620   3.08922
   D268       1.05472  -0.00000  -0.00013   0.00273   0.00260   1.05732
   D269      -3.13684  -0.00001  -0.00014   0.00280   0.00266  -3.13418
   D270      -1.04775  -0.00001  -0.00017   0.00293   0.00276  -1.04499
   D271      -3.08841  -0.00001  -0.00013   0.00269   0.00256  -3.08585
   D272      -0.99679  -0.00002  -0.00014   0.00276   0.00262  -0.99417
   D273       1.09231  -0.00002  -0.00016   0.00288   0.00272   1.09503
   D274      -1.03506   0.00003   0.00011   0.00201   0.00211  -1.03295
   D275       1.05656   0.00002   0.00009   0.00208   0.00217   1.05873
   D276      -3.13752   0.00002   0.00007   0.00220   0.00227  -3.13525
   D277      -1.06255   0.00000  -0.00005   0.00075   0.00070  -1.06185
   D278       1.06124   0.00000  -0.00009   0.00085   0.00076   1.06201
   D279       3.14126   0.00000  -0.00007   0.00066   0.00059  -3.14133
   D280       3.11366   0.00001   0.00001   0.00077   0.00077   3.11443
   D281      -1.04573   0.00000  -0.00003   0.00086   0.00084  -1.04489
   D282       1.03429   0.00001  -0.00001   0.00068   0.00067   1.03496
   D283       1.04409  -0.00001  -0.00014   0.00115   0.00101   1.04510
   D284      -3.11530  -0.00001  -0.00018   0.00125   0.00107  -3.11423
   D285      -1.03528  -0.00001  -0.00016   0.00106   0.00091  -1.03437
   D286      -1.05393   0.00000   0.00029  -0.00269  -0.00239  -1.05632
   D287       1.04740   0.00000   0.00032  -0.00254  -0.00223   1.04517
   D288       3.13673   0.00000   0.00030  -0.00267  -0.00237   3.13436
   D289       1.03616  -0.00001   0.00008  -0.00229  -0.00222   1.03394
   D290       3.13748  -0.00001   0.00010  -0.00215  -0.00205   3.13543
   D291      -1.05638  -0.00001   0.00008  -0.00227  -0.00219  -1.05857
   D292       3.08924   0.00001   0.00030  -0.00273  -0.00244   3.08680
   D293      -1.09262   0.00002   0.00032  -0.00259  -0.00227  -1.09489
   D294       0.99671   0.00002   0.00030  -0.00271  -0.00241   0.99430
   D295      -1.24845   0.00002   0.00088  -0.00367  -0.00279  -1.25123
   D296       1.89083  -0.00003   0.00123  -0.00802  -0.00679   1.88404
   D297       3.02079   0.00007   0.00077  -0.00308  -0.00230   3.01849
   D298      -0.12311   0.00002   0.00112  -0.00742  -0.00631  -0.12942
   D299       0.71016  -0.00003   0.00087  -0.00260  -0.00173   0.70843
   D300      -2.43375  -0.00009   0.00121  -0.00695  -0.00573  -2.43948
   D301       3.12836  -0.00007   0.00048  -0.00683  -0.00635   3.12201
   D302      -0.02598  -0.00005   0.00044  -0.00566  -0.00523  -0.03121
   D303      -0.01085  -0.00002   0.00013  -0.00235  -0.00223  -0.01308
   D304       3.11799   0.00000   0.00008  -0.00119  -0.00111   3.11688
   D305      -3.12927   0.00007  -0.00052   0.00727   0.00675  -3.12252
   D306      -0.00374   0.00006  -0.00037   0.00431   0.00394   0.00020
   D307       0.00994   0.00001  -0.00016   0.00279   0.00263   0.01257
   D308       3.13547   0.00000  -0.00001  -0.00017  -0.00019   3.13528
   D309       0.00267   0.00001   0.00007  -0.00109  -0.00102   0.00164
   D310      -3.14134   0.00001  -0.00002   0.00146   0.00145  -3.13989
   D311      -3.12609  -0.00001   0.00012  -0.00226  -0.00215  -3.12824
   D312       0.01309  -0.00001   0.00003   0.00030   0.00033   0.01341
   D313      -0.00084   0.00000   0.00000   0.00023   0.00023  -0.00062
   D314       3.12509  -0.00001   0.00013  -0.00162  -0.00149   3.12360
   D315      -3.12607   0.00002  -0.00015   0.00324   0.00309  -3.12298
   D316      -0.00014   0.00001  -0.00002   0.00139   0.00138   0.00124
   D317       0.00616   0.00001  -0.00023   0.00406   0.00384   0.01000
   D318      -3.13608   0.00000  -0.00012   0.00177   0.00166  -3.13442
   D319      -3.13300   0.00001  -0.00014   0.00149   0.00135  -3.13165
   D320       0.00794   0.00000  -0.00003  -0.00080  -0.00082   0.00712
   D321      -0.00710  -0.00002   0.00019  -0.00362  -0.00343  -0.01053
   D322       3.13514  -0.00001   0.00008  -0.00133  -0.00125   3.13389
   D323      -3.13293  -0.00001   0.00006  -0.00177  -0.00171  -3.13463
   D324       0.00931   0.00000  -0.00005   0.00052   0.00047   0.00978
   D325       0.19530   0.00000  -0.00003   0.00175   0.00172   0.19702
   D326      -2.98987   0.00002   0.00011   0.00218   0.00228  -2.98759
   D327      -3.08196  -0.00001  -0.00005   0.00140   0.00136  -3.08060
   D328       0.01605   0.00001   0.00009   0.00183   0.00192   0.01797
   D329      -0.11096  -0.00002  -0.00007  -0.00129  -0.00136  -0.11232
   D330       2.99230  -0.00002  -0.00005  -0.00194  -0.00199   2.99030
   D331      -3.11880  -0.00000  -0.00005  -0.00099  -0.00104  -3.11984
   D332      -0.01554   0.00000  -0.00003  -0.00164  -0.00168  -0.01722
   D333       3.14030   0.00002   0.00019   0.00124   0.00143  -3.14146
   D334      -0.01194   0.00001   0.00011   0.00080   0.00091  -0.01103
   D335       0.04680   0.00000   0.00004   0.00077   0.00081   0.04761
   D336      -3.10543  -0.00001  -0.00004   0.00032   0.00029  -3.10515
   D337      -0.01031  -0.00001  -0.00011  -0.00129  -0.00140  -0.01171
   D338       3.14039  -0.00001  -0.00015  -0.00118  -0.00134   3.13906
   D339       3.09216   0.00001   0.00001  -0.00090  -0.00089   3.09127
   D340      -0.04032   0.00000  -0.00003  -0.00079  -0.00082  -0.04114
   D341       3.10988   0.00000   0.00002  -0.00117  -0.00115   3.10874
   D342      -0.03050   0.00000   0.00001  -0.00068  -0.00067  -0.03117
   D343       0.01062   0.00000   0.00000  -0.00045  -0.00044   0.01018
   D344      -3.12976  -0.00000  -0.00001   0.00004   0.00003  -3.12973
   D345       0.00905  -0.00001  -0.00003   0.00083   0.00080   0.00985
   D346      -3.11820  -0.00000   0.00001   0.00089   0.00089  -3.11731
   D347       3.11633  -0.00001  -0.00002   0.00025   0.00023   3.11657
   D348      -0.01092   0.00000   0.00002   0.00031   0.00033  -0.01059
   D349      -0.01881   0.00000  -0.00001   0.00000  -0.00000  -0.01881
   D350       3.11995  -0.00001  -0.00007  -0.00049  -0.00056   3.11939
   D351       3.13325   0.00001   0.00007   0.00044   0.00051   3.13376
   D352      -0.01117   0.00000   0.00001  -0.00006  -0.00005  -0.01122
   D353       0.00076   0.00001   0.00009   0.00028   0.00036   0.00112
   D354       3.12520   0.00000   0.00004   0.00021   0.00025   3.12545
   D355       3.13144   0.00002   0.00014   0.00015   0.00029   3.13173
   D356      -0.02730   0.00001   0.00009   0.00008   0.00017  -0.02712
   D357       0.00422  -0.00001  -0.00001   0.00003   0.00002   0.00424
   D358      -3.13527   0.00001   0.00005   0.00042   0.00047  -3.13480
   D359      -3.12536  -0.00001  -0.00007   0.00018   0.00011  -3.12526
   D360       0.01834  -0.00000  -0.00000   0.00056   0.00056   0.01889
   D361      -0.00311  -0.00000  -0.00001   0.00038   0.00037  -0.00273
   D362       3.13568  -0.00000   0.00000   0.00056   0.00056   3.13623
   D363       3.13729   0.00000   0.00000  -0.00010  -0.00010   3.13720
   D364      -0.00711   0.00000   0.00002   0.00007   0.00009  -0.00702
   D365       0.00337  -0.00000  -0.00003  -0.00009  -0.00012   0.00325
   D366       3.13925  -0.00000  -0.00003  -0.00069  -0.00072   3.13853
   D367      -3.11934   0.00000   0.00002  -0.00001   0.00001  -3.11933
   D368       0.01654   0.00001   0.00002  -0.00062  -0.00060   0.01595
   D369      -0.01568  -0.00000  -0.00004  -0.00073  -0.00077  -0.01645
   D370       3.12530  -0.00001  -0.00012  -0.00101  -0.00113   3.12417
   D371       3.12881   0.00000   0.00002  -0.00022  -0.00020   3.12861
   D372      -0.01339  -0.00001  -0.00006  -0.00050  -0.00056  -0.01395
   D373       0.02281   0.00001   0.00004   0.00070   0.00075   0.02355
   D374      -3.11819   0.00002   0.00013   0.00097   0.00110  -3.11709
   D375      -3.12092  -0.00000  -0.00002   0.00031   0.00029  -3.12063
   D376       0.02127   0.00000   0.00006   0.00058   0.00064   0.02191
   D377      -0.00410  -0.00000   0.00000  -0.00017  -0.00017  -0.00427
   D378       3.13904   0.00000   0.00006   0.00080   0.00086   3.13990
   D379       3.14037  -0.00000  -0.00001  -0.00035  -0.00036   3.14001
   D380       0.00033   0.00000   0.00004   0.00062   0.00067   0.00100
   D381       0.00390   0.00000   0.00002   0.00002   0.00004   0.00394
   D382      -3.13919   0.00000  -0.00003  -0.00092  -0.00096  -3.14015
   D383      -3.13190   0.00000   0.00002   0.00063   0.00065  -3.13125
   D384       0.00819   0.00000  -0.00004  -0.00031  -0.00035   0.00784
   D385       0.00949   0.00000   0.00004   0.00132   0.00136   0.01085
   D386       2.10755   0.00000   0.00005   0.00137   0.00142   2.10897
   D387      -2.08209   0.00000   0.00003   0.00142   0.00145  -2.08064
   D388      -3.13272  -0.00000  -0.00005   0.00105   0.00099  -3.13173
   D389      -1.03467  -0.00000  -0.00004   0.00110   0.00105  -1.03361
   D390       1.05888  -0.00001  -0.00006   0.00115   0.00109   1.05997
   D391      -0.00911  -0.00000   0.00011   0.00410   0.00421  -0.00490
   D392       2.08606   0.00000   0.00011   0.00408   0.00418   2.09024
   D393      -2.10437   0.00000   0.00011   0.00413   0.00424  -2.10014
   D394       3.13405   0.00000   0.00017   0.00508   0.00525   3.13931
   D395      -1.05396   0.00000   0.00016   0.00506   0.00523  -1.04873
   D396       1.03879   0.00000   0.00017   0.00511   0.00528   1.04407
   D397      -1.06153   0.00000   0.00001  -0.00075  -0.00074  -1.06227
   D398       1.06378   0.00000   0.00001  -0.00074  -0.00073   1.06306
   D399      -3.14072   0.00000   0.00001  -0.00072  -0.00071  -3.14143
   D400       3.10849   0.00000   0.00001  -0.00088  -0.00087   3.10762
   D401      -1.04938   0.00000   0.00001  -0.00087  -0.00086  -1.05024
   D402       1.02930   0.00000   0.00001  -0.00085  -0.00084   1.02846
   D403       1.04160  -0.00001  -0.00001  -0.00089  -0.00090   1.04070
   D404      -3.11626  -0.00000  -0.00000  -0.00089  -0.00089  -3.11715
   D405      -1.03758  -0.00000  -0.00001  -0.00087  -0.00088  -1.03846
   D406      -1.04671  -0.00001  -0.00002   0.00014   0.00012  -1.04660
   D407       1.05199  -0.00001  -0.00001   0.00014   0.00013   1.05212
   D408      -3.13969  -0.00001  -0.00002   0.00013   0.00012  -3.13957
   D409       1.09644  -0.00000  -0.00001   0.00015   0.00015   1.09659
   D410      -3.08804   0.00000   0.00000   0.00016   0.00016  -3.08788
   D411      -0.99654   0.00000  -0.00000   0.00015   0.00015  -0.99639
   D412      -3.13654   0.00001   0.00002   0.00015   0.00017  -3.13637
   D413      -1.03784   0.00001   0.00002   0.00016   0.00018  -1.03766
   D414       1.05367   0.00001   0.00002   0.00015   0.00017   1.05384
   D415       1.03647   0.00000   0.00004  -0.00080  -0.00076   1.03571
   D416       3.13110   0.00000   0.00004  -0.00077  -0.00073   3.13037
   D417      -1.05911   0.00000   0.00004  -0.00068  -0.00064  -1.05975
   D418      -1.10142  -0.00000   0.00003  -0.00068  -0.00065  -1.10207
   D419       0.99320  -0.00000   0.00003  -0.00065  -0.00062   0.99258
   D420       3.08618  -0.00000   0.00003  -0.00056  -0.00053   3.08565
   D421       3.13085  -0.00000   0.00001  -0.00068  -0.00067   3.13017
   D422      -1.05771  -0.00000   0.00001  -0.00065  -0.00064  -1.05835
   D423       1.03526  -0.00000   0.00001  -0.00055  -0.00055   1.03472
   D424      -1.06099  -0.00000   0.00005   0.00256   0.00260  -1.05838
   D425       1.06522  -0.00000   0.00005   0.00252   0.00257   1.06779
[...]
 Alpha virt. eigenvalues --    2.64977   2.65287   2.65396   2.65602   2.65729
 Alpha virt. eigenvalues --    2.66041   2.66201   2.66692   2.66785   2.66909
 Alpha virt. eigenvalues --    2.67031   2.67243   2.67296   2.67448   2.67568
 Alpha virt. eigenvalues --    2.67738   2.67877   2.68052   2.68500   2.68699
 Alpha virt. eigenvalues --    2.68837   2.69149   2.69371   2.69590   2.69733
 Alpha virt. eigenvalues --    2.69936   2.70007   2.70285   2.71104   2.71434
 Alpha virt. eigenvalues --    2.71909   2.72112   2.72389   2.73090   2.73534
 Alpha virt. eigenvalues --    2.74762   2.74943   2.75402   2.75672   2.75832
 Alpha virt. eigenvalues --    2.75877   2.76196   2.76486   2.76791   2.77469
 Alpha virt. eigenvalues --    2.77892   2.78330   2.78627   2.79436   2.79726
 Alpha virt. eigenvalues --    2.79744   2.79795   2.79999   2.80053   2.80133
 Alpha virt. eigenvalues --    2.80223   2.80302   2.80524   2.80580   2.80698
 Alpha virt. eigenvalues --    2.80770   2.80998   2.81041   2.81136   2.81738
 Alpha virt. eigenvalues --    2.81834   2.81954   2.82357   2.82436   2.82879
 Alpha virt. eigenvalues --    2.83020   2.83684   2.83883   2.84331   2.84369
 Alpha virt. eigenvalues --    2.84967   2.85157   2.85352   2.85774   2.85857
 Alpha virt. eigenvalues --    2.86150   2.86611   2.87798   2.88433   2.89483
 Alpha virt. eigenvalues --    2.90214   2.90378   2.91153   2.91335   2.91723
 Alpha virt. eigenvalues --    2.92175   2.92337   2.92353   2.92524   2.92759
 Alpha virt. eigenvalues --    2.92887   2.92935   2.93146   2.93208   2.93400
 Alpha virt. eigenvalues --    2.93466   2.93736   2.93840   2.94000   2.94072
 Alpha virt. eigenvalues --    2.94114   2.94426   2.94495   2.94949   2.95734
 Alpha virt. eigenvalues --    2.96253   2.97548   2.97904   2.98643   2.98831
 Alpha virt. eigenvalues --    2.99165   2.99244   2.99512   2.99579   2.99610
 Alpha virt. eigenvalues --    2.99641   2.99837   3.00199   3.00394   3.01204
 Alpha virt. eigenvalues --    3.01331   3.01716   3.02084   3.02243   3.02301
 Alpha virt. eigenvalues --    3.02827   3.02865   3.03065   3.03553   3.04868
 Alpha virt. eigenvalues --    3.05815   3.06245   3.06684   3.08755   3.09200
 Alpha virt. eigenvalues --    3.09433   3.09463   3.09680   3.09870   3.10534
 Alpha virt. eigenvalues --    3.13628   3.15611   3.16646   3.17616   3.18174
 Alpha virt. eigenvalues --    3.18632   3.20409   3.22127   3.22244   3.23413
 Alpha virt. eigenvalues --    3.23836   3.23939   3.24318   3.24565   3.24816
 Alpha virt. eigenvalues --    3.24845   3.25952   3.26034   3.26710   3.27675
 Alpha virt. eigenvalues --    3.28877   3.29571   3.29627   3.29635   3.29849
 Alpha virt. eigenvalues --    3.30089   3.30212   3.30285   3.30371   3.30699
 Alpha virt. eigenvalues --    3.30810   3.31320   3.31385   3.31527   3.31777
 Alpha virt. eigenvalues --    3.33144   3.34088   3.35606   3.36287   3.37128
 Alpha virt. eigenvalues --    3.37336   3.38767   3.39434   3.40310   3.41102
 Alpha virt. eigenvalues --    3.41275   3.41911   3.42694   3.45909   3.46184
 Alpha virt. eigenvalues --    3.47097   3.48269   3.48378   3.48452   3.48748
 Alpha virt. eigenvalues --    3.48758   3.48780   3.48981   3.49032   3.49299
 Alpha virt. eigenvalues --    3.49370   3.49442   3.49562   3.49568   3.49772
 Alpha virt. eigenvalues --    3.49835   3.50030   3.50166   3.50310   3.50403
 Alpha virt. eigenvalues --    3.50553   3.50649   3.50727   3.50973   3.51033
 Alpha virt. eigenvalues --    3.51107   3.51541   3.51659   3.51673   3.51737
 Alpha virt. eigenvalues --    3.55991   3.56837   3.57183   3.57584   3.57758
 Alpha virt. eigenvalues --    3.57948   3.58058   3.58198   3.58345   3.58423
 Alpha virt. eigenvalues --    3.59968   3.60016   3.60393   3.60624   3.60762
 Alpha virt. eigenvalues --    3.61184   3.68856   3.77313   3.79608   3.80367
 Alpha virt. eigenvalues --    3.85136   3.88201   3.89084   3.90689   3.97006
 Alpha virt. eigenvalues --    4.13665   4.14126   4.16954   4.18085   4.18440
 Alpha virt. eigenvalues --    4.19632   4.22147   4.23167   4.23491   4.24585
 Alpha virt. eigenvalues --    4.24756   4.25155   4.25543   4.26420   4.28139
 Alpha virt. eigenvalues --    4.28553   4.28728   4.29306   4.30448   4.30523
 Alpha virt. eigenvalues --    4.31383   4.32289   4.32960   4.34861   4.36325
 Alpha virt. eigenvalues --    4.39962   4.43838   4.44788   4.44935   4.45161
 Alpha virt. eigenvalues --    4.45394   4.45647   4.46053   4.46373   4.46799
 Alpha virt. eigenvalues --    4.48908   4.50568   4.51696   4.52302   4.55287
 Alpha virt. eigenvalues --    4.56070   4.56290   4.58673   4.59971   4.60130
 Alpha virt. eigenvalues --    4.60616   4.60658   4.60901   4.61062   4.61116
 Alpha virt. eigenvalues --    4.61143   4.61203   4.61724   4.61851   4.63260
 Alpha virt. eigenvalues --    4.65203   4.66504   4.66935   4.67341   4.67746
 Alpha virt. eigenvalues --    4.68192   4.68640   4.70023   4.78902   4.79002
 Alpha virt. eigenvalues --    4.79196   4.79665   4.79821   4.80357   4.86401
 Alpha virt. eigenvalues --    4.90352   4.92861   4.93394   4.97065   4.99522
 Alpha virt. eigenvalues --    5.00754   5.03047
          Condensed to atoms (all electrons):
 Mulliken charges:
               1
     1  C    0.312410
     2  C    0.300282
     3  C   -0.141807
     4  C    0.023294
     5  C   -0.171946
     6  C    0.030160
     7  C   -0.181245
     8  H    0.135151
     9  C   -0.196331
    10  C   -0.184752
    11  H    0.139813
    12  C   -0.199050
    13  C    0.122271
    14  H    0.128454
    15  H    0.121580
    16  C    0.120944
    17  H    0.123475
    18  H    0.124775
    19  C    0.249520
    20  C    0.260036
    21  C   -0.175430
    22  C   -0.233133
    23  C    0.206888
    24  C   -0.135477
    25  H    0.215046
    26  C    0.313797
    27  C    0.314603
    28  C   -0.139807
    29  C   -0.031096
    30  C   -0.180912
    31  C    0.020957
    32  C   -0.179403
    33  H    0.154959
    34  C   -0.191308
    35  C   -0.191106
    36  H    0.136849
    37  C   -0.195256
    38  C    0.127322
    39  H    0.125508
    40  H    0.123070
    41  C    0.134924
    42  H    0.119659
    43  H    0.125304
    44  C   -0.067858
    45  C   -0.067762
    46  N   -0.770536
    47  N   -0.756522
    48  C   -0.068141
    49  C   -0.074930
    50  S    1.223837
    51  C   -0.213182
    52  C   -0.116980
    53  C   -0.111791
    54  C   -0.137067
    55  H    0.173909
    56  C   -0.125846
    57  H    0.193402
    58  C   -0.117227
    59  H    0.148825
    60  H    0.155593
    61  H    0.148666
    62  O   -0.550123
    63  O   -0.566703
    64  H    0.193400
    65  C   -0.363132
    66  H    0.125432
    67  H    0.123256
    68  H    0.136036
    69  C   -0.385446
    70  H    0.126966
    71  H    0.131079
    72  H    0.127651
    73  C   -0.365396
    74  H    0.128881
    75  H    0.125058
    76  H    0.124180
    77  C   -0.364018
    78  H    0.124738
    79  H    0.122338
    80  H    0.134607
    81  C   -0.382936
    82  H    0.128441
    83  H    0.129627
    84  H    0.126698
    85  C   -0.363548
    86  H    0.127085
    87  H    0.135055
    88  H    0.121762
    89  C   -0.366120
    90  H    0.124434
    91  H    0.123953
    92  H    0.134808
    93  C   -0.364303
    94  H    0.123240
    95  H    0.124168
    96  H    0.136687
    97  C   -0.386177
    98  H    0.132068
    99  H    0.128713
   100  H    0.127018
   101  C   -0.365782
   102  H    0.121099
   103  H    0.124067
   104  H    0.138447
   105  C   -0.363817
   106  H    0.122136
   107  H    0.122348
   108  H    0.135612
   109  C   -0.391953
   110  H    0.138343
   111  H    0.130409
   112  H    0.124850
   113  N   -0.766453
   114  C    0.311458
   115  C    0.302399
   116  C   -0.143090
   117  C    0.023537
   118  C   -0.173353
   119  C    0.028581
   120  C   -0.181458
   121  H    0.129778
   122  C   -0.196803
   123  C   -0.183073
   124  H    0.146345
   125  C   -0.198643
   126  C    0.121991
   127  H    0.125547
   128  H    0.121715
   129  C    0.119940
   130  H    0.126520
   131  H    0.123636
   132  C   -0.067689
   133  C   -0.067494
   134  C   -0.390864
   135  C   -0.363694
   136  C   -0.365517
   137  C   -0.386960
   138  C   -0.366179
   139  C   -0.364272
   140  H    0.136801
   141  H    0.129535
   142  H    0.124633
   143  H    0.135226
   144  H    0.122914
   145  H    0.121913
   146  H    0.137502
   147  H    0.120751
   148  H    0.124743
   149  H    0.133992
   150  H    0.129601
   151  H    0.126462
   152  H    0.123214
   153  H    0.123648
   154  H    0.134745
   155  H    0.123153
   156  H    0.137864
   157  H    0.122783
 Sum of Mulliken charges =  -0.00000
 Mulliken charges with hydrogens summed into heavy atoms:
               1
     1  C    0.312410
     2  C    0.300282
     3  C   -0.006657
     4  C    0.023294
     5  C   -0.032133
     6  C    0.030160
     7  C   -0.052791
     9  C   -0.074751
    10  C   -0.061277
    12  C   -0.074275
    13  C    0.122271
    16  C    0.120944
    19  C    0.249520
    20  C    0.260036
    21  C    0.039616
    22  C   -0.233133
    23  C    0.206888
    24  C    0.057923
    26  C    0.313797
    27  C    0.314603
    28  C    0.015152
    29  C   -0.031096
    30  C   -0.044063
    31  C    0.020957
    32  C   -0.053895
    34  C   -0.068238
    35  C   -0.071448
    37  C   -0.069952
    38  C    0.127322
    41  C    0.134924
    44  C   -0.067858
    45  C   -0.067762
    46  N   -0.770536
    47  N   -0.756522
    48  C   -0.068141
    49  C   -0.074930
    50  S    1.223837
    51  C   -0.213182
    52  C    0.056929
    53  C    0.081611
    54  C    0.011758
    56  C    0.029748
    58  C    0.031439
    62  O   -0.550123
    63  O   -0.566703
    65  C    0.021592
    69  C    0.000249
    73  C    0.012723
    77  C    0.017665
    81  C    0.001830
    85  C    0.020354
    89  C    0.017075
    93  C    0.019792
    97  C    0.001622
   101  C    0.017831
   105  C    0.016278
   109  C    0.001649
   113  N   -0.766453
   114  C    0.311458
   115  C    0.302399
   116  C   -0.013312
   117  C    0.023537
   118  C   -0.027009
   119  C    0.028581
   120  C   -0.055910
   122  C   -0.075087
   123  C   -0.056553
   125  C   -0.075006
   126  C    0.121991
   129  C    0.119940
   132  C   -0.067689
   133  C   -0.067494
   134  C    0.000105
   135  C    0.016359
   136  C    0.017478
   137  C    0.003095
   138  C    0.015428
   139  C    0.019528
 Electronic spatial extent (au):  <R**2>=          79964.0848
 Charge=             -0.0000 electrons
 Dipole moment (field-independent basis, Debye):
    X=              0.0961    Y=              4.6514    Z=              0.5757  Tot=              4.6879
 Quadrupole moment (field-independent basis, Debye-Ang):
   XX=           -423.5488   YY=           -460.9603   ZZ=           -466.5449
   XY=             16.9071   XZ=             -6.0479   YZ=            -21.2912
 Traceless Quadrupole moment (field-independent basis, Debye-Ang):
   XX=             26.8026   YY=            -10.6090   ZZ=            -16.1936
   XY=             16.9071   XZ=             -6.0479   YZ=            -21.2912
 Octapole moment (field-independent basis, Debye-Ang**2):
  XXX=            116.5437  YYY=             90.4169  ZZZ=            -18.0418  XYY=            -94.8399
  XXY=             31.8861  XXZ=             -4.1003  XZZ=             47.3987  YZZ=             39.4752
  YYZ=             64.7558  XYZ=            -72.8099
 Hexadecapole moment (field-independent basis, Debye-Ang**3):
 XXXX=         -63262.3464 YYYY=         -27762.4499 ZZZZ=         -15246.8576 XXXY=            367.3311
 XXXZ=           -116.6069 YYYX=            351.1839 YYYZ=           -162.4104 ZZZX=           -197.5116
 ZZZY=           -308.5398 XXYY=         -15357.3271 XXZZ=         -13176.4453 YYZZ=          -7345.0368
 XXYZ=           -319.2775 YYXZ=            121.0095 ZZXY=            -12.2522
 N-N= 1.369149554525D+04 E-N=-3.552294908426D+04  KE= 3.473318046713D+03
 Leave Link  601 at Mon Sep 16 18:28:08 2024, MaxMem=  2147483648 cpu:              33.0 elap:               3.7
 (Enter /apps/gaussian/g16/l9999.exe)

 Test job not archived.
 1\1\GINC-PMLP-HPCCLSAP03\FOpt\RwB97XD TDA-FC\6-31G(d,p)\C72H79N3O2S1\W
 ILLIAM1\16-Sep-2024\0\\#p opt wb97xd/6-31G** iop(3/107=0103900000,3/10
 8=0103900000) TDA=(triplets, nstates=4, root=2)\\Tuning input file gen
 erated by xtune with parameters: w01039\\0,1\C,-2.340717126,0.26578104
 38,1.6064318509\C,-1.1184481109,2.0764469793,0.9868826641\C,-2.7958371
 372,-1.0147258732,1.8942819129\C,-3.054059331,1.4049780524,2.031186428
 2\C,-0.1729628529,2.9495128358,0.4587120902\C,-2.2739298507,2.56223530
 38,1.6355134672\C,-4.0111558488,-1.1384668845,2.5624765657\H,-2.238860
 0784,-1.897341198,1.6054319498\C,-4.2632104397,1.2504327318,2.70669185
 47\C,-0.3967185527,4.3187517624,0.6020601037\H,0.7156905704,2.59211138
 39,-0.0491894953\C,-2.4688310027,3.9356509005,1.762261304\C,-4.7714927
 991,-0.0264791276,2.9715097015\H,-4.3678190952,-2.1405933662,2.7628480
 966\H,-4.8071481356,2.1347202297,3.02325749\C,-1.5316696044,4.84120024
 8,1.2494331133\H,0.3477681171,4.9905186229,0.1930479108\H,-3.363609163
 5,4.2953643905,2.260291416\C,-0.2882185388,-0.1417487338,0.2263220499\
 C,-0.7339606199,-1.0166088897,-0.7930927528\C,0.2034796101,-1.80426134
 02,-1.4675753469\C,1.5597757516,-1.7238924102,-1.1748007757\C,2.011757
 2365,-0.834859456,-0.1896397016\C,1.0809132975,-0.0621723561,0.4977909
 532\H,-0.1255118827,-2.4592641737,-2.2659838218\C,4.1264783383,-1.3444
 784872,1.0488774327\C,4.1187488028,0.4749043513,-0.320375839\C,3.81858
 96709,-2.460277703,1.7892774169\C,5.4126722507,-0.6596083321,1.1751302
 682\C,3.7719017682,1.4500357216,-1.2092819298\C,5.3900990919,0.4461799
 498,0.3308127404\C,4.8011308412,-2.9413736474,2.6750720294\H,2.8713430
 854,-2.971726559,1.6758067423\C,6.3893707372,-1.1951588678,2.083085732
 4\C,4.7645774457,2.4753742254,-1.5001869594\H,2.8121649047,1.461295944
 ,-1.7104942253\C,6.350862248,1.4773131105,0.0192658686\C,6.0924238102,
 -2.3143667155,2.8249196443\H,4.5732153679,-3.8270476179,3.2553979194\H
 ,7.3444630154,-0.6943048027,2.1699915674\C,6.0224018697,2.4914099995,-
 0.9070938126\H,4.4850104033,3.2388650929,-2.213991019\H,7.3137304227,1
 .46389017,0.5157949338\C,-6.1249743686,-0.1708055509,3.6907114389\C,-1
 .7733998341,6.3537293326,1.4062543656\N,-1.1676325714,0.6745222554,0.9
 580972993\N,3.3873496493,-0.6540158001,0.102809828\C,7.0642883418,3.58
 27010258,-1.2129763395\C,7.0865545885,-2.9356343594,3.8164825508\S,2.6
 54704502,-2.8350173462,-2.0986682733\C,3.8883534843,-1.7581340274,-2.8
 169182795\C,3.5190285051,-0.9139600713,-3.865040107\C,5.1868676524,-1.
 7830416693,-2.3140156166\C,4.4786026842,-0.0652765238,-4.4106880935\H,
 2.5060848963,-0.9318913168,-4.250766931\C,6.1370885527,-0.9293239113,-
 2.8708844715\H,5.4334727983,-2.4486186735,-1.4954269016\C,5.7824011762
 ,-0.0717077116,-3.9116782096\H,4.2097111116,0.5976760732,-5.2254787128
 \H,7.1478884769,-0.9256438833,-2.4808395256\H,6.5238162155,0.594936004
 5,-4.337168009\O,3.3112635083,-3.7283102469,-1.1435349772\O,1.83538542
 39,-3.3815695584,-3.1845191594\H,1.427942197,0.6006087329,1.2816601955
 \C,7.3843631597,4.3586023728,0.0851555148\H,7.7921346832,3.7032376853,
 0.8595590737\H,8.1221954715,5.1442854929,-0.1097981524\H,6.4820585695,
 4.8285551027,0.4874185854\C,6.5683173489,4.5913219963,-2.264531127\H,6
 .338011069,4.1030522436,-3.2166963785\H,5.6751088331,5.1248473873,-1.9
 253817311\H,7.3450126593,5.3380412491,-2.4548740296\C,8.3560676519,2.9
 271609622,-1.7514664583\H,8.1544982257,2.3741466308,-2.6735222868\H,9.
 1101032879,3.6906882142,-1.9702159398\H,8.7908221905,2.2288584055,-1.0
 313377737\C,6.4657671114,-2.9311722796,5.2330519637\H,5.5399351946,-3.
 5105383049,5.2775439433\H,7.1654471994,-3.367588832,5.9535956736\H,6.2
 378310059,-1.9102090059,5.5531542653\C,8.4164295538,-2.1634295698,3.87
 4211135\H,8.9216005101,-2.1544063407,2.9035016169\H,8.2698935056,-1.12
 84595527,4.1981059245\H,9.0893572391,-2.6420306975,4.5918655532\C,7.39
 22494887,-4.3902400726,3.3888222045\H,6.4939243803,-5.0127104012,3.377
 236652\H,7.8290609587,-4.4158628678,2.3862598719\H,8.1042726035,-4.846
 6922962,4.0844582302\C,-3.0897575637,6.7394208954,0.6936632552\H,-3.94
 87886863,6.2066237406,1.1107912046\H,-3.2818199507,7.8126456326,0.7980
 427261\H,-3.0363324668,6.5047475589,-0.3735292374\C,-1.8787206386,6.70
 43113475,2.9079808273\H,-2.0452238176,7.7788248163,3.0393024668\H,-2.7
 073664463,6.1792534926,3.391029167\H,-0.9594516734,6.4335765575,3.4356
 039147\C,-0.6369414737,7.1958049392,0.7981464315\H,0.3241242242,6.9899
 419853,1.2795169526\H,-0.5300953468,7.0199117546,-0.276841675\H,-0.852
 8674238,8.2594514709,0.9364464043\C,-7.2260760362,0.5014676821,2.83942
 02688\H,-8.2020199869,0.4021459175,3.3268215992\H,-7.0330437126,1.5680
 938929,2.6961082465\H,-7.2869701354,0.0382312852,1.8505137154\C,-6.051
 9510016,0.5133936158,5.0745148254\H,-5.8273929243,1.5802988177,4.98978
 59613\H,-7.0080544381,0.416710462,5.6000682751\H,-5.2738926033,0.05668
 07267,5.6933398539\C,-6.5208309183,-1.643046919,3.9050762644\H,-6.6210
 014587,-2.1781559586,2.9562397797\H,-5.7932557229,-2.1739552512,4.5268
 167738\H,-7.4874737895,-1.6931706805,4.415392379\N,-2.0897620261,-1.11
 69911422,-1.1551049412\C,-2.9361424796,-0.0548014287,-1.4952461047\C,-
 2.8645619244,-2.281743454,-1.0631322661\C,-2.6312363351,1.2742621949,-
 1.7616619154\C,-4.2581912097,-0.5339750293,-1.6005196878\C,-2.49003830
 04,-3.579553686,-0.7315566055\C,-4.2128746408,-1.9574273008,-1.3251656
 462\C,-3.6809060146,2.132018265,-2.0805188922\H,-1.6153997472,1.647254
 9236,-1.7166411841\C,-5.2870530034,0.3462991191,-1.9304531661\C,-3.487
 7236971,-4.5525379863,-0.6791546722\H,-1.4596951674,-3.840085162,-0.51
 73292252\C,-5.1863551005,-2.9522206078,-1.2646872273\C,-5.0182261129,1
 .7001613635,-2.1629499509\H,-3.435281272,3.1698109093,-2.2660541109\H,
 -6.3016710264,-0.0324447361,-2.0028205157\C,-4.8413410418,-4.270529236
 8,-0.9425922748\H,-3.1872252482,-5.5615979609,-0.4258330036\H,-6.21995
 36546,-2.6891282213,-1.4662075096\C,-6.1767805658,2.6580582386,-2.4952
 465119\C,-5.9380050881,-5.3499446255,-0.8864116651\C,-5.6951260406,4.1
 011523196,-2.7313760278\C,-6.8962992121,2.1766843477,-3.7754239426\C,-
 7.1760994049,2.6741536166,-1.3161939785\C,-5.377139087,-6.7382412403,-
 0.5281191973\C,-6.9834709568,-4.9644829387,0.1848540167\C,-6.627888343
 8,-5.4531292373,-2.2657919484\H,-5.2038466704,4.5147147006,-1.84567595
 41\H,-5.0000273997,4.1652497851,-3.5743470787\H,-6.5517897839,4.741544
 9634,-2.9624049454\H,-6.2057250297,2.1522835605,-4.623613098\H,-7.3122
 888151,1.1725604438,-3.6552570821\H,-7.7229984278,2.8500470337,-4.0262
 169048\H,-6.6834768147,3.0022403851,-0.3964086955\H,-8.0057187649,3.35
 82150924,-1.5253904724\H,-7.6004496119,1.6835930118,-1.1314314838\H,-4
 .6475599035,-7.0851997368,-1.266262817\H,-4.9011200588,-6.7433973961,0
 .4574098897\H,-6.1916603692,-7.4683595064,-0.5026367562\H,-7.455145760
 6,-4.0026409966,-0.0349847427\H,-7.7757846183,-5.7189574365,0.23614841
 39\H,-6.5180705987,-4.8913879064,1.1722171795\H,-7.0989731797,-4.51003
 29302,-2.5563611982\H,-5.9048788785,-5.7182570147,-3.0427286925\H,-7.4
 07855001,-6.2218379434,-2.2469657288\\Version=ES64L-G16RevC.01\State=1
 -A\HF=-3503.777217\RMSD=5.799e-09\RMSF=1.691e-06\Dipole=0.0323992,1.70
 23819,0.3216355\PG=C01 [X(C72H79N3O2S1)]\\@


 HE THAT WALD REACHE THE SWEITE ROSE
 SULD NOW AND THEN BE SCRATCHED WT THE SCHARPE BREERES.
 -- PROVERBS AND REASONS OF THE YEAR 1585
           AS REPRINTED IN PAISLEY MAGAZINE 1828.
 Job cpu time:      29 days  9 hours 42 minutes 14.2 seconds.
 Elapsed time:       2 days 23 hours  6 minutes 33.5 seconds.
 File lengths (MBytes):  RWF=  12905 Int=      0 D2E=      0 Chk=    563 Scr=      1
 Normal termination of Gaussian 16 at Mon Sep 16 18:28:13 2024.
