 Entering Gaussian System, Link 0=g16
 Initial command:
 /apps/gaussian/g16/l1.exe "/local/Gau-1293259.inp" -scrdir="/local/"
 Entering Link 1 = /apps/gaussian/g16/l1.exe PID=   1293260.
  
 Copyright (c) 1988-2019, Gaussian, Inc.  All Rights Reserved.
  
 This is part of the Gaussian(R) 16 program.  It is based on
 the Gaussian(R) 09 system (copyright 2009, Gaussian, Inc.),
 the Gaussian(R) 03 system (copyright 2003, Gaussian, Inc.),
 the Gaussian(R) 98 system (copyright 1998, Gaussian, Inc.),
 the Gaussian(R) 94 system (copyright 1995, Gaussian, Inc.),
 the Gaussian 92(TM) system (copyright 1992, Gaussian, Inc.),
 the Gaussian 90(TM) system (copyright 1990, Gaussian, Inc.),
 the Gaussian 88(TM) system (copyright 1988, Gaussian, Inc.),
 the Gaussian 86(TM) system (copyright 1986, Carnegie Mellon
 University), and the Gaussian 82(TM) system (copyright 1983,
 Carnegie Mellon University). Gaussian is a federally registered
 trademark of Gaussian, Inc.
  
 This software contains proprietary and confidential information,
 including trade secrets, belonging to Gaussian, Inc.
  
 This software is provided under written license and may be
 used, copied, transmitted, or stored only in accord with that
 written license.
  
 The following legend is applicable only to US Government
 contracts under FAR:
  
                    RESTRICTED RIGHTS LEGEND
  
 Use, reproduction and disclosure by the US Government is
 subject to restrictions as set forth in subparagraphs (a)
 and (c) of the Commercial Computer Software - Restricted
 Rights clause in FAR 52.227-19.
  
 Gaussian, Inc.
 340 Quinnipiac St., Bldg. 40, Wallingford CT 06492
  
  
 ---------------------------------------------------------------
 Warning -- This program may not be used in any manner that
 competes with the business of Gaussian, Inc. or will provide
 assistance to any competitor of Gaussian, Inc.  The licensee
 of this program is prohibited from giving any competitor of
 Gaussian, Inc. access to this program.  By using this program,
 the user acknowledges that Gaussian, Inc. is engaged in the
 business of creating and licensing software in the field of
 computational chemistry and represents and warrants to the
 licensee that it is not a competitor of Gaussian, Inc. and that
 it will not use this program in any manner prohibited above.
 ---------------------------------------------------------------
  

 Cite this work as:
 Gaussian 16, Revision C.01,
 M. J. Frisch, G. W. Trucks, H. B. Schlegel, G. E. Scuseria, 
 M. A. Robb, J. R. Cheeseman, G. Scalmani, V. Barone, 
 G. A. Petersson, H. Nakatsuji, X. Li, M. Caricato, A. V. Marenich, 
 J. Bloino, B. G. Janesko, R. Gomperts, B. Mennucci, H. P. Hratchian, 
 J. V. Ortiz, A. F. Izmaylov, J. L. Sonnenberg, D. Williams-Young, 
 F. Ding, F. Lipparini, F. Egidi, J. Goings, B. Peng, A. Petrone, 
 T. Henderson, D. Ranasinghe, V. G. Zakrzewski, J. Gao, N. Rega, 
 G. Zheng, W. Liang, M. Hada, M. Ehara, K. Toyota, R. Fukuda, 
 J. Hasegawa, M. Ishida, T. Nakajima, Y. Honda, O. Kitao, H. Nakai, 
 T. Vreven, K. Throssell, J. A. Montgomery, Jr., J. E. Peralta, 
 F. Ogliaro, M. J. Bearpark, J. J. Heyd, E. N. Brothers, K. N. Kudin, 
 V. N. Staroverov, T. A. Keith, R. Kobayashi, J. Normand, 
 K. Raghavachari, A. P. Rendell, J. C. Burant, S. S. Iyengar, 
 J. Tomasi, M. Cossi, J. M. Millam, M. Klene, C. Adamo, R. Cammi, 
 J. W. Ochterski, R. L. Martin, K. Morokuma, O. Farkas, 
 J. B. Foresman, and D. J. Fox, Gaussian, Inc., Wallingford CT, 2019.
 
 ******************************************
 Gaussian 16:  ES64L-G16RevC.01  3-Jul-2019
                14-Aug-2024 
 ******************************************
 %chk=YZ-VIII-195.chk
 %nprocshared=16
 Will use up to   16 processors via shared memory.
 %mem=16GB
 ----------------------------------------------------------------------
 #p opt wB97XD/6-31G** iop(3/107=0136000000,3/108=0136000000) TDA=(trip
 lets, nstates=4, root=2)
 ----------------------------------------------------------------------
 1/18=20,19=15,26=3,38=1/1,3;
 2/9=110,12=2,17=6,18=5,40=1/2;
 3/5=1,6=6,7=101,11=9,25=1,30=1,71=1,74=-58,107=136000000,108=136000000/1,2,3,8;
 4//1;
 5/5=2,38=5/2;
 8/6=1,10=2,107=2,108=4/1;
 9/8=2,15=2,41=4,42=1,48=3/14;
 10/5=4,28=2/2;
 6/7=2,8=2,9=2,10=2/1;
 7/12=6,13=5,14=2/1,2,3,16;
 1/18=20,19=15,26=3/3(2);
 2/9=110/2;
 99//99;
 2/9=110/2;
 3/5=1,6=6,7=101,11=9,25=1,30=1,71=1,74=-58,107=136000000,108=136000000/1,2,3,8;
 4/5=5,16=3,69=1/1;
 5/5=2,38=5/2;
 8/6=1,10=2,107=2,108=4/1;
 9/8=2,15=2,41=4,42=1,48=3,49=4/14;
 10/5=4,28=2/2;
 7/12=6,13=5,14=2/1,2,3,16;
 1/18=20,19=15,26=3/3(-8);
 2/9=110/2;
 6/7=2,8=2,9=2,10=2/1;
 99/9=10/99;
 Leave Link    1 at Wed Aug 14 12:27:14 2024, MaxMem=  2147483648 cpu:               0.8 elap:               0.1
 (Enter /apps/gaussian/g16/l101.exe)
 ------------------------------------------------------------
 Tuning input file generated by xtune with parameters: w01360
 ------------------------------------------------------------
 Symbolic Z-matrix:
 Charge =  0 Multiplicity = 1
 6                    -0.2924   -1.32713   0.33802 
 6                     0.2757   -0.34572  -0.50775 
 6                     1.59011  -0.50554  -0.94596 
 6                     2.33152  -1.60863  -0.54178 
 6                     1.77771  -2.5967    0.26579 
 6                     0.46395  -2.44893   0.69367 
 16                    4.05046  -1.72241  -1.04371 
 8                     4.15738  -1.18413  -2.39939 
 1                     2.01437   0.22825  -1.62201 
 1                     2.37116  -3.45607   0.55484 
 1                     0.01205  -3.18892   1.34474 
 7                    -0.42559   0.81293  -0.89451 
 6                    -1.68916   0.8715   -1.49005 
 6                    -0.02551   2.11545  -0.5767 
 6                    -2.46066  -0.16089  -2.0188 
 6                    -2.10897   2.21709  -1.53984 
 6                     1.14085   2.55198   0.05245 
 6                    -1.047     3.0121   -0.95761 
 6                    -3.69643   0.17353  -2.55967 
 1                    -2.11955  -1.18903  -2.00597 
 6                    -3.35068   2.53043  -2.0976 
 6                     1.2743    3.91786   0.28343 
 1                     1.91684   1.85792   0.35722 
 6                    -0.88737   4.37813  -0.71692 
 6                    -4.14281   1.50323  -2.59569 
 1                    -4.32444  -0.61426  -2.96155 
 1                    -3.68946   3.56051  -2.14028 
 6                     0.27517   4.82489  -0.09838 
 1                     2.17248   4.28444   0.76983 
 1                    -1.66443   5.07944  -1.00327 
 1                    -5.11276   1.73002  -3.02503 
 1                     0.41151   5.88374   0.09353 
 7                    -1.61139  -1.21599   0.81983 
 6                    -2.643    -2.11776   0.53574 
 6                    -2.15325  -0.12972   1.51433 
 6                    -2.59399  -3.32221  -0.16601 
 6                    -3.85474  -1.59808   1.03964 
 6                    -1.50677   0.98155   2.0511 
 6                    -3.54132  -0.32933   1.66449 
 6                    -3.78902  -4.0134   -0.34217 
 1                    -1.66321  -3.70597  -0.5692 
 6                    -5.03993  -2.31186   0.8518 
 6                    -2.28935   1.92611   2.70467 
 1                    -0.43575   1.11586   1.95846 
 6                    -4.30594   0.62853   2.33433 
 6                    -5.0003   -3.51899   0.16296 
 1                    -3.77935  -4.95389  -0.88322 
 1                    -5.97941  -1.92388   1.23193 
 6                    -3.67535   1.75776   2.8425 
 1                    -1.81294   2.81028   3.11443 
 1                    -5.37563   0.49119   2.45473 
 1                    -5.91388  -4.08333   0.01003 
 1                    -4.25721   2.51426   3.35798 
 8                     4.51531  -3.06845  -0.70809 
 6                     4.84504  -0.56065   0.06817 
 6                     4.99114   0.76696  -0.33128 
 6                     5.26703  -0.99953   1.32159 
 6                     5.56412   1.67635   0.55495 
 1                     4.67838   1.07024  -1.32413 
 6                     5.84088  -0.08104   2.19719 
 1                     5.15915  -2.04359   1.59317 
 6                     5.98357   1.25341   1.81638 
 1                     5.68933   2.71164   0.25678 
 1                     6.17973  -0.40789   3.17423 
 1                     6.43005   1.96505   2.50289 
 
 ITRead=  0  0  0  0  0  0  0  0  0  0  0  0  0  0  0  0  0  0  0  0
 ITRead=  0  0  0  0  0  0  0  0  0  0  0  0  0  0  0  0  0  0  0  0
 ITRead=  0  0  0  0  0  0  0  0  0  0  0  0  0  0  0  0  0  0  0  0
 ITRead=  0  0  0  0  0
 MicOpt= -1 -1 -1 -1 -1 -1 -1 -1 -1 -1 -1 -1 -1 -1 -1 -1 -1 -1 -1 -1
 MicOpt= -1 -1 -1 -1 -1 -1 -1 -1 -1 -1 -1 -1 -1 -1 -1 -1 -1 -1 -1 -1
 MicOpt= -1 -1 -1 -1 -1 -1 -1 -1 -1 -1 -1 -1 -1 -1 -1 -1 -1 -1 -1 -1
 MicOpt= -1 -1 -1 -1 -1
 NAtoms=     65 NQM=       65 NQMF=       0 NMMI=      0 NMMIF=      0
                NMic=       0 NMicF=      0.
                    Isotopes and Nuclear Properties:
 (Nuclear quadrupole moments (NQMom) in fm**2, nuclear magnetic moments (NMagM)
  in nuclear magnetons)

  Atom         1           2           3           4           5           6           7           8           9          10
 IAtWgt=          12          12          12          12          12          12          32          16           1           1
 AtmWgt=  12.0000000  12.0000000  12.0000000  12.0000000  12.0000000  12.0000000  31.9720718  15.9949146   1.0078250   1.0078250
 NucSpn=           0           0           0           0           0           0           0           0           1           1
 AtZEff=  -0.0000000  -0.0000000  -0.0000000  -0.0000000  -0.0000000  -0.0000000  -0.0000000  -0.0000000  -0.0000000  -0.0000000
 NQMom=    0.0000000   0.0000000   0.0000000   0.0000000   0.0000000   0.0000000   0.0000000   0.0000000   0.0000000   0.0000000
 NMagM=    0.0000000   0.0000000   0.0000000   0.0000000   0.0000000   0.0000000   0.0000000   0.0000000   2.7928460   2.7928460
 AtZNuc=   6.0000000   6.0000000   6.0000000   6.0000000   6.0000000   6.0000000  16.0000000   8.0000000   1.0000000   1.0000000

  Atom        11          12          13          14          15          16          17          18          19          20
 IAtWgt=           1          14          12          12          12          12          12          12          12           1
 AtmWgt=   1.0078250  14.0030740  12.0000000  12.0000000  12.0000000  12.0000000  12.0000000  12.0000000  12.0000000   1.0078250
 NucSpn=           1           2           0           0           0           0           0           0           0           1
 AtZEff=  -0.0000000  -0.0000000  -0.0000000  -0.0000000  -0.0000000  -0.0000000  -0.0000000  -0.0000000  -0.0000000  -0.0000000
 NQMom=    0.0000000   2.0440000   0.0000000   0.0000000   0.0000000   0.0000000   0.0000000   0.0000000   0.0000000   0.0000000
 NMagM=    2.7928460   0.4037610   0.0000000   0.0000000   0.0000000   0.0000000   0.0000000   0.0000000   0.0000000   2.7928460
 AtZNuc=   1.0000000   7.0000000   6.0000000   6.0000000   6.0000000   6.0000000   6.0000000   6.0000000   6.0000000   1.0000000

  Atom        21          22          23          24          25          26          27          28          29          30
 IAtWgt=          12          12           1          12          12           1           1          12           1           1
 AtmWgt=  12.0000000  12.0000000   1.0078250  12.0000000  12.0000000   1.0078250   1.0078250  12.0000000   1.0078250   1.0078250
 NucSpn=           0           0           1           0           0           1           1           0           1           1
 AtZEff=  -0.0000000  -0.0000000  -0.0000000  -0.0000000  -0.0000000  -0.0000000  -0.0000000  -0.0000000  -0.0000000  -0.0000000
 NQMom=    0.0000000   0.0000000   0.0000000   0.0000000   0.0000000   0.0000000   0.0000000   0.0000000   0.0000000   0.0000000
 NMagM=    0.0000000   0.0000000   2.7928460   0.0000000   0.0000000   2.7928460   2.7928460   0.0000000   2.7928460   2.7928460
 AtZNuc=   6.0000000   6.0000000   1.0000000   6.0000000   6.0000000   1.0000000   1.0000000   6.0000000   1.0000000   1.0000000

  Atom        31          32          33          34          35          36          37          38          39          40
 IAtWgt=           1           1          14          12          12          12          12          12          12          12
 AtmWgt=   1.0078250   1.0078250  14.0030740  12.0000000  12.0000000  12.0000000  12.0000000  12.0000000  12.0000000  12.0000000
 NucSpn=           1           1           2           0           0           0           0           0           0           0
 AtZEff=  -0.0000000  -0.0000000  -0.0000000  -0.0000000  -0.0000000  -0.0000000  -0.0000000  -0.0000000  -0.0000000  -0.0000000
 NQMom=    0.0000000   0.0000000   2.0440000   0.0000000   0.0000000   0.0000000   0.0000000   0.0000000   0.0000000   0.0000000
 NMagM=    2.7928460   2.7928460   0.4037610   0.0000000   0.0000000   0.0000000   0.0000000   0.0000000   0.0000000   0.0000000
 AtZNuc=   1.0000000   1.0000000   7.0000000   6.0000000   6.0000000   6.0000000   6.0000000   6.0000000   6.0000000   6.0000000

  Atom        41          42          43          44          45          46          47          48          49          50
 IAtWgt=           1          12          12           1          12          12           1           1          12           1
 AtmWgt=   1.0078250  12.0000000  12.0000000   1.0078250  12.0000000  12.0000000   1.0078250   1.0078250  12.0000000   1.0078250
 NucSpn=           1           0           0           1           0           0           1           1           0           1
 AtZEff=  -0.0000000  -0.0000000  -0.0000000  -0.0000000  -0.0000000  -0.0000000  -0.0000000  -0.0000000  -0.0000000  -0.0000000
 NQMom=    0.0000000   0.0000000   0.0000000   0.0000000   0.0000000   0.0000000   0.0000000   0.0000000   0.0000000   0.0000000
 NMagM=    2.7928460   0.0000000   0.0000000   2.7928460   0.0000000   0.0000000   2.7928460   2.7928460   0.0000000   2.7928460
 AtZNuc=   1.0000000   6.0000000   6.0000000   1.0000000   6.0000000   6.0000000   1.0000000   1.0000000   6.0000000   1.0000000

  Atom        51          52          53          54          55          56          57          58          59          60
 IAtWgt=           1           1           1          16          12          12          12          12           1          12
 AtmWgt=   1.0078250   1.0078250   1.0078250  15.9949146  12.0000000  12.0000000  12.0000000  12.0000000   1.0078250  12.0000000
 NucSpn=           1           1           1           0           0           0           0           0           1           0
 AtZEff=  -0.0000000  -0.0000000  -0.0000000  -0.0000000  -0.0000000  -0.0000000  -0.0000000  -0.0000000  -0.0000000  -0.0000000
 NQMom=    0.0000000   0.0000000   0.0000000   0.0000000   0.0000000   0.0000000   0.0000000   0.0000000   0.0000000   0.0000000
 NMagM=    2.7928460   2.7928460   2.7928460   0.0000000   0.0000000   0.0000000   0.0000000   0.0000000   2.7928460   0.0000000
 AtZNuc=   1.0000000   1.0000000   1.0000000   8.0000000   6.0000000   6.0000000   6.0000000   6.0000000   1.0000000   6.0000000

  Atom        61          62          63          64          65
 IAtWgt=           1          12           1           1           1
 AtmWgt=   1.0078250  12.0000000   1.0078250   1.0078250   1.0078250
 NucSpn=           1           0           1           1           1
 AtZEff=  -0.0000000  -0.0000000  -0.0000000  -0.0000000  -0.0000000
 NQMom=    0.0000000   0.0000000   0.0000000   0.0000000   0.0000000
 NMagM=    2.7928460   0.0000000   2.7928460   2.7928460   2.7928460
 AtZNuc=   1.0000000   6.0000000   1.0000000   1.0000000   1.0000000
 Leave Link  101 at Wed Aug 14 12:27:15 2024, MaxMem=  2147483648 cpu:               7.2 elap:               0.7
 (Enter /apps/gaussian/g16/l103.exe)

 GradGradGradGradGradGradGradGradGradGradGradGradGradGradGradGradGradGrad
 Berny optimization.
 Initialization pass.
                           ----------------------------
                           !    Initial Parameters    !
                           ! (Angstroms and Degrees)  !
 --------------------------                            --------------------------
 ! Name  Definition              Value          Derivative Info.                !
 --------------------------------------------------------------------------------
 ! R1    R(1,2)                  1.4146         estimate D2E/DX2                !
 ! R2    R(1,6)                  1.3989         estimate D2E/DX2                !
 ! R3    R(1,33)                 1.4086         estimate D2E/DX2                !
 ! R4    R(2,3)                  1.3947         estimate D2E/DX2                !
 ! R5    R(2,12)                 1.4085         estimate D2E/DX2                !
 ! R6    R(3,4)                  1.3892         estimate D2E/DX2                !
 ! R7    R(3,9)                  1.0842         estimate D2E/DX2                !
 ! R8    R(4,5)                  1.3911         estimate D2E/DX2                !
 ! R9    R(4,7)                  1.7943         estimate D2E/DX2                !
 ! R10   R(5,6)                  1.3896         estimate D2E/DX2                !
 ! R11   R(5,10)                 1.0836         estimate D2E/DX2                !
 ! R12   R(6,11)                 1.0843         estimate D2E/DX2                !
 ! R13   R(7,8)                  1.4625         estimate D2E/DX2                !
 ! R14   R(7,54)                 1.4631         estimate D2E/DX2                !
 ! R15   R(7,55)                 1.7937         estimate D2E/DX2                !
 ! R16   R(12,13)                1.3981         estimate D2E/DX2                !
 ! R17   R(12,14)                1.3992         estimate D2E/DX2                !
 ! R18   R(13,15)                1.3931         estimate D2E/DX2                !
 ! R19   R(13,16)                1.4104         estimate D2E/DX2                !
 ! R20   R(14,17)                1.3953         estimate D2E/DX2                !
 ! R21   R(14,18)                1.4116         estimate D2E/DX2                !
 ! R22   R(15,19)                1.3898         estimate D2E/DX2                !
 ! R23   R(15,20)                1.0833         estimate D2E/DX2                !
 ! R24   R(16,18)                1.4487         estimate D2E/DX2                !
 ! R25   R(16,21)                1.3968         estimate D2E/DX2                !
 ! R26   R(17,22)                1.3917         estimate D2E/DX2                !
 ! R27   R(17,23)                1.0848         estimate D2E/DX2                !
 ! R28   R(18,24)                1.3962         estimate D2E/DX2                !
 ! R29   R(19,25)                1.4031         estimate D2E/DX2                !
 ! R30   R(19,26)                1.0847         estimate D2E/DX2                !
 ! R31   R(21,25)                1.3895         estimate D2E/DX2                !
 ! R32   R(21,27)                1.0852         estimate D2E/DX2                !
 ! R33   R(22,28)                1.4024         estimate D2E/DX2                !
 ! R34   R(22,29)                1.0852         estimate D2E/DX2                !
 ! R35   R(24,28)                1.3906         estimate D2E/DX2                !
 ! R36   R(24,30)                1.0852         estimate D2E/DX2                !
 ! R37   R(25,31)                1.0847         estimate D2E/DX2                !
 ! R38   R(28,32)                1.0847         estimate D2E/DX2                !
 ! R39   R(33,34)                1.3993         estimate D2E/DX2                !
 ! R40   R(33,35)                1.3985         estimate D2E/DX2                !
 ! R41   R(34,36)                1.3948         estimate D2E/DX2                !
 ! R42   R(34,37)                1.4115         estimate D2E/DX2                !
 ! R43   R(35,38)                1.3932         estimate D2E/DX2                !
 ! R44   R(35,39)                1.4104         estimate D2E/DX2                !
 ! R45   R(36,40)                1.3917         estimate D2E/DX2                !
 ! R46   R(36,41)                1.0845         estimate D2E/DX2                !
 ! R47   R(37,39)                1.4486         estimate D2E/DX2                !
 ! R48   R(37,42)                1.3962         estimate D2E/DX2                !
 ! R49   R(38,43)                1.3899         estimate D2E/DX2                !
 ! R50   R(38,44)                1.0834         estimate D2E/DX2                !
 ! R51   R(39,45)                1.3967         estimate D2E/DX2                !
 ! R52   R(40,46)                1.4024         estimate D2E/DX2                !
 ! R53   R(40,47)                1.0851         estimate D2E/DX2                !
 ! R54   R(42,46)                1.3904         estimate D2E/DX2                !
 ! R55   R(42,48)                1.0852         estimate D2E/DX2                !
 ! R56   R(43,49)                1.403          estimate D2E/DX2                !
 ! R57   R(43,50)                1.0847         estimate D2E/DX2                !
 ! R58   R(45,49)                1.3896         estimate D2E/DX2                !
 ! R59   R(45,51)                1.0852         estimate D2E/DX2                !
 ! R60   R(46,52)                1.0847         estimate D2E/DX2                !
 ! R61   R(49,53)                1.0847         estimate D2E/DX2                !
 ! R62   R(55,56)                1.3941         estimate D2E/DX2                !
 ! R63   R(55,57)                1.3935         estimate D2E/DX2                !
 ! R64   R(56,58)                1.3931         estimate D2E/DX2                !
 ! R65   R(56,59)                1.0842         estimate D2E/DX2                !
 ! R66   R(57,60)                1.3927         estimate D2E/DX2                !
 ! R67   R(57,61)                1.0842         estimate D2E/DX2                !
 ! R68   R(58,62)                1.395          estimate D2E/DX2                !
 ! R69   R(58,63)                1.0846         estimate D2E/DX2                !
 ! R70   R(60,62)                1.395          estimate D2E/DX2                !
 ! R71   R(60,64)                1.0846         estimate D2E/DX2                !
 ! R72   R(62,65)                1.0849         estimate D2E/DX2                !
 ! A1    A(2,1,6)              119.4189         estimate D2E/DX2                !
 ! A2    A(2,1,33)             121.7215         estimate D2E/DX2                !
 ! A3    A(6,1,33)             118.8534         estimate D2E/DX2                !
 ! A4    A(1,2,3)              119.1314         estimate D2E/DX2                !
 ! A5    A(1,2,12)             122.3377         estimate D2E/DX2                !
 ! A6    A(3,2,12)             118.5034         estimate D2E/DX2                !
 ! A7    A(2,3,4)              120.1683         estimate D2E/DX2                !
 ! A8    A(2,3,9)              119.1532         estimate D2E/DX2                !
 ! A9    A(4,3,9)              120.663          estimate D2E/DX2                !
 ! A10   A(3,4,5)              121.3611         estimate D2E/DX2                !
 ! A11   A(3,4,7)              118.7011         estimate D2E/DX2                !
 ! A12   A(5,4,7)              119.9161         estimate D2E/DX2                !
 ! A13   A(4,5,6)              118.6601         estimate D2E/DX2                !
 ! A14   A(4,5,10)             120.0074         estimate D2E/DX2                !
 ! A15   A(6,5,10)             121.3309         estimate D2E/DX2                !
 ! A16   A(1,6,5)              121.2093         estimate D2E/DX2                !
 ! A17   A(1,6,11)             118.3328         estimate D2E/DX2                !
 ! A18   A(5,6,11)             120.421          estimate D2E/DX2                !
 ! A19   A(4,7,8)              107.8175         estimate D2E/DX2                !
 ! A20   A(4,7,54)             107.37           estimate D2E/DX2                !
 ! A21   A(4,7,55)             102.1164         estimate D2E/DX2                !
 ! A22   A(8,7,54)             121.8718         estimate D2E/DX2                !
 ! A23   A(8,7,55)             107.6875         estimate D2E/DX2                !
 ! A24   A(54,7,55)            108.2364         estimate D2E/DX2                !
 ! A25   A(2,12,13)            126.9711         estimate D2E/DX2                !
 ! A26   A(2,12,14)            124.1291         estimate D2E/DX2                !
 ! A27   A(13,12,14)           108.4322         estimate D2E/DX2                !
 ! A28   A(12,13,15)           129.1354         estimate D2E/DX2                !
 ! A29   A(12,13,16)           108.9058         estimate D2E/DX2                !
 ! A30   A(15,13,16)           121.9228         estimate D2E/DX2                !
 ! A31   A(12,14,17)           129.2502         estimate D2E/DX2                !
 ! A32   A(12,14,18)           108.8521         estimate D2E/DX2                !
 ! A33   A(17,14,18)           121.8622         estimate D2E/DX2                !
 ! A34   A(13,15,19)           117.5055         estimate D2E/DX2                !
 ! A35   A(13,15,20)           121.6327         estimate D2E/DX2                !
 ! A36   A(19,15,20)           120.8605         estimate D2E/DX2                !
 ! A37   A(13,16,18)           106.9272         estimate D2E/DX2                !
 ! A38   A(13,16,21)           119.5185         estimate D2E/DX2                !
 ! A39   A(18,16,21)           133.5517         estimate D2E/DX2                !
 ! A40   A(14,17,22)           117.5201         estimate D2E/DX2                !
 ! A41   A(14,17,23)           121.6343         estimate D2E/DX2                !
 ! A42   A(22,17,23)           120.845          estimate D2E/DX2                !
 ! A43   A(14,18,16)           106.8779         estimate D2E/DX2                !
 ! A44   A(14,18,24)           119.487          estimate D2E/DX2                !
 ! A45   A(16,18,24)           133.6287         estimate D2E/DX2                !
 ! A46   A(15,19,25)           121.3937         estimate D2E/DX2                !
 ! A47   A(15,19,26)           118.9635         estimate D2E/DX2                !
 ! A48   A(25,19,26)           119.6428         estimate D2E/DX2                !
 ! A49   A(16,21,25)           118.9523         estimate D2E/DX2                !
 ! A50   A(16,21,27)           120.4077         estimate D2E/DX2                !
 ! A51   A(25,21,27)           120.64           estimate D2E/DX2                !
 ! A52   A(17,22,28)           121.4176         estimate D2E/DX2                !
 ! A53   A(17,22,29)           119.0313         estimate D2E/DX2                !
 ! A54   A(28,22,29)           119.5511         estimate D2E/DX2                !
 ! A55   A(18,24,28)           119.1167         estimate D2E/DX2                !
 ! A56   A(18,24,30)           120.3261         estimate D2E/DX2                !
 ! A57   A(28,24,30)           120.5558         estimate D2E/DX2                !
 ! A58   A(19,25,21)           120.6653         estimate D2E/DX2                !
 ! A59   A(19,25,31)           119.5243         estimate D2E/DX2                !
 ! A60   A(21,25,31)           119.8083         estimate D2E/DX2                !
 ! A61   A(22,28,24)           120.5918         estimate D2E/DX2                !
 ! A62   A(22,28,32)           119.5797         estimate D2E/DX2                !
 ! A63   A(24,28,32)           119.8284         estimate D2E/DX2                !
 ! A64   A(1,33,34)            124.7519         estimate D2E/DX2                !
 ! A65   A(1,33,35)            126.4358         estimate D2E/DX2                !
 ! A66   A(34,33,35)           108.4048         estimate D2E/DX2                !
 ! A67   A(33,34,36)           129.2506         estimate D2E/DX2                !
 ! A68   A(33,34,37)           108.8532         estimate D2E/DX2                !
 ! A69   A(36,34,37)           121.8501         estimate D2E/DX2                !
 ! A70   A(33,35,38)           129.1307         estimate D2E/DX2                !
 ! A71   A(33,35,39)           108.921          estimate D2E/DX2                !
 ! A72   A(38,35,39)           121.9077         estimate D2E/DX2                !
 ! A73   A(34,36,40)           117.5402         estimate D2E/DX2                !
 ! A74   A(34,36,41)           121.5164         estimate D2E/DX2                !
 ! A75   A(40,36,41)           120.9412         estimate D2E/DX2                !
 ! A76   A(34,37,39)           106.9012         estimate D2E/DX2                !
 ! A77   A(34,37,42)           119.5032         estimate D2E/DX2                !
 ! A78   A(39,37,42)           133.5867         estimate D2E/DX2                !
 ! A79   A(35,38,43)           117.5152         estimate D2E/DX2                !
 ! A80   A(35,38,44)           121.6458         estimate D2E/DX2                !
 ! A81   A(43,38,44)           120.8366         estimate D2E/DX2                !
 ! A82   A(35,39,37)           106.9162         estimate D2E/DX2                !
 ! A83   A(35,39,45)           119.5239         estimate D2E/DX2                !
 ! A84   A(37,39,45)           133.5573         estimate D2E/DX2                !
 ! A85   A(36,40,46)           121.3967         estimate D2E/DX2                !
 ! A86   A(36,40,47)           119.0737         estimate D2E/DX2                !
 ! A87   A(46,40,47)           119.5296         estimate D2E/DX2                !
 ! A88   A(37,42,46)           119.0975         estimate D2E/DX2                !
 ! A89   A(37,42,48)           120.3295         estimate D2E/DX2                !
 ! A90   A(46,42,48)           120.571          estimate D2E/DX2                !
 ! A91   A(38,43,49)           121.3918         estimate D2E/DX2                !
 ! A92   A(38,43,50)           118.9656         estimate D2E/DX2                !
 ! A93   A(49,43,50)           119.6427         estimate D2E/DX2                !
 ! A94   A(39,45,49)           118.9632         estimate D2E/DX2                !
 ! A95   A(39,45,51)           120.4006         estimate D2E/DX2                !
 ! A96   A(49,45,51)           120.6362         estimate D2E/DX2                !
 ! A97   A(40,46,42)           120.6058         estimate D2E/DX2                !
 ! A98   A(40,46,52)           119.5555         estimate D2E/DX2                !
 ! A99   A(42,46,52)           119.8382         estimate D2E/DX2                !
 ! A100  A(43,49,45)           120.6559         estimate D2E/DX2                !
 ! A101  A(43,49,53)           119.5337         estimate D2E/DX2                !
 ! A102  A(45,49,53)           119.8087         estimate D2E/DX2                !
 ! A103  A(7,55,56)            119.0527         estimate D2E/DX2                !
 ! A104  A(7,55,57)            119.1925         estimate D2E/DX2                !
 ! A105  A(56,55,57)           121.7315         estimate D2E/DX2                !
 ! A106  A(55,56,58)           118.8477         estimate D2E/DX2                !
 ! A107  A(55,56,59)           119.9037         estimate D2E/DX2                !
 ! A108  A(58,56,59)           121.2377         estimate D2E/DX2                !
 ! A109  A(55,57,60)           118.8548         estimate D2E/DX2                !
 ! A110  A(55,57,61)           119.8992         estimate D2E/DX2                !
 ! A111  A(60,57,61)           121.2393         estimate D2E/DX2                !
 ! A112  A(56,58,62)           120.0666         estimate D2E/DX2                !
 ! A113  A(56,58,63)           119.7152         estimate D2E/DX2                !
 ! A114  A(62,58,63)           120.2165         estimate D2E/DX2                !
 ! A115  A(57,60,62)           120.0915         estimate D2E/DX2                !
 ! A116  A(57,60,64)           119.7601         estimate D2E/DX2                !
 ! A117  A(62,60,64)           120.1479         estimate D2E/DX2                !
 ! A118  A(58,62,60)           120.4043         estimate D2E/DX2                !
 ! A119  A(58,62,65)           119.8054         estimate D2E/DX2                !
 ! A120  A(60,62,65)           119.7888         estimate D2E/DX2                !
 ! D1    D(6,1,2,3)             -1.3445         estimate D2E/DX2                !
 ! D2    D(6,1,2,12)          -179.4104         estimate D2E/DX2                !
 ! D3    D(33,1,2,3)           179.5669         estimate D2E/DX2                !
 ! D4    D(33,1,2,12)            1.5009         estimate D2E/DX2                !
 ! D5    D(2,1,6,5)              2.0498         estimate D2E/DX2                !
 ! D6    D(2,1,6,11)           179.8504         estimate D2E/DX2                !
 ! D7    D(33,1,6,5)          -178.8353         estimate D2E/DX2                !
 ! D8    D(33,1,6,11)           -1.0347         estimate D2E/DX2                !
 ! D9    D(2,1,33,34)          117.4375         estimate D2E/DX2                !
 ! D10   D(2,1,33,35)          -54.3726         estimate D2E/DX2                !
 ! D11   D(6,1,33,34)          -61.6561         estimate D2E/DX2                !
 ! D12   D(6,1,33,35)          126.5337         estimate D2E/DX2                !
 ! D13   D(1,2,3,4)             -0.7042         estimate D2E/DX2                !
 ! D14   D(1,2,3,9)            177.872          estimate D2E/DX2                !
 ! D15   D(12,2,3,4)           177.4364         estimate D2E/DX2                !
 ! D16   D(12,2,3,9)            -3.9874         estimate D2E/DX2                !
 ! D17   D(1,2,12,13)          -53.565          estimate D2E/DX2                !
 ! D18   D(1,2,12,14)          117.6659         estimate D2E/DX2                !
 ! D19   D(3,2,12,13)          128.3574         estimate D2E/DX2                !
 ! D20   D(3,2,12,14)          -60.4117         estimate D2E/DX2                !
 ! D21   D(2,3,4,5)              2.1366         estimate D2E/DX2                !
 ! D22   D(2,3,4,7)           -176.1671         estimate D2E/DX2                !
 ! D23   D(9,3,4,5)           -176.4179         estimate D2E/DX2                !
 ! D24   D(9,3,4,7)              5.2785         estimate D2E/DX2                !
 ! D25   D(3,4,5,6)             -1.4443         estimate D2E/DX2                !
 ! D26   D(3,4,5,10)           179.0044         estimate D2E/DX2                !
 ! D27   D(7,4,5,6)            176.839          estimate D2E/DX2                !
 ! D28   D(7,4,5,10)            -2.7123         estimate D2E/DX2                !
 ! D29   D(3,4,7,8)            -36.6624         estimate D2E/DX2                !
 ! D30   D(3,4,7,54)          -169.6359         estimate D2E/DX2                !
 ! D31   D(3,4,7,55)            76.6286         estimate D2E/DX2                !
 ! D32   D(5,4,7,8)            145.0088         estimate D2E/DX2                !
 ! D33   D(5,4,7,54)            12.0353         estimate D2E/DX2                !
 ! D34   D(5,4,7,55)          -101.7002         estimate D2E/DX2                !
 ! D35   D(4,5,6,1)             -0.6657         estimate D2E/DX2                !
 ! D36   D(4,5,6,11)          -178.4207         estimate D2E/DX2                !
 ! D37   D(10,5,6,1)           178.8794         estimate D2E/DX2                !
 ! D38   D(10,5,6,11)            1.1244         estimate D2E/DX2                !
 ! D39   D(4,7,55,56)          -91.2222         estimate D2E/DX2                !
 ! D40   D(4,7,55,57)           87.0507         estimate D2E/DX2                !
 ! D41   D(8,7,55,56)           22.1653         estimate D2E/DX2                !
 ! D42   D(8,7,55,57)         -159.5618         estimate D2E/DX2                !
 ! D43   D(54,7,55,56)         155.6848         estimate D2E/DX2                !
 ! D44   D(54,7,55,57)         -26.0423         estimate D2E/DX2                !
 ! D45   D(2,12,13,15)         -10.5366         estimate D2E/DX2                !
 ! D46   D(2,12,13,16)         171.6478         estimate D2E/DX2                !
 ! D47   D(14,12,13,15)        177.1075         estimate D2E/DX2                !
 ! D48   D(14,12,13,16)         -0.708          estimate D2E/DX2                !
 ! D49   D(2,12,14,17)           5.8772         estimate D2E/DX2                !
 ! D50   D(2,12,14,18)        -171.9511         estimate D2E/DX2                !
 ! D51   D(13,12,14,17)        178.5009         estimate D2E/DX2                !
 ! D52   D(13,12,14,18)          0.6726         estimate D2E/DX2                !
 ! D53   D(12,13,15,19)       -179.9474         estimate D2E/DX2                !
 ! D54   D(12,13,15,20)          0.4752         estimate D2E/DX2                !
 ! D55   D(16,13,15,19)         -2.3825         estimate D2E/DX2                !
 ! D56   D(16,13,15,20)        178.0402         estimate D2E/DX2                !
 ! D57   D(12,13,16,18)          0.4667         estimate D2E/DX2                !
 ! D58   D(12,13,16,21)        179.9544         estimate D2E/DX2                !
 ! D59   D(15,13,16,18)       -177.537          estimate D2E/DX2                !
 ! D60   D(15,13,16,21)          1.9506         estimate D2E/DX2                !
 ! D61   D(12,14,17,22)       -178.2429         estimate D2E/DX2                !
 ! D62   D(12,14,17,23)          1.4729         estimate D2E/DX2                !
 ! D63   D(18,14,17,22)         -0.6628         estimate D2E/DX2                !
 ! D64   D(18,14,17,23)        179.053          estimate D2E/DX2                !
 ! D65   D(12,14,18,16)         -0.377          estimate D2E/DX2                !
 ! D66   D(12,14,18,24)        178.8244         estimate D2E/DX2                !
 ! D67   D(17,14,18,16)       -178.397          estimate D2E/DX2                !
 ! D68   D(17,14,18,24)          0.8044         estimate D2E/DX2                !
 ! D69   D(13,15,19,25)          1.1442         estimate D2E/DX2                !
 ! D70   D(13,15,19,26)       -178.8985         estimate D2E/DX2                !
 ! D71   D(20,15,19,25)       -179.275          estimate D2E/DX2                !
 ! D72   D(20,15,19,26)          0.6823         estimate D2E/DX2                !
 ! D73   D(13,16,18,14)         -0.0545         estimate D2E/DX2                !
 ! D74   D(13,16,18,24)       -179.0941         estimate D2E/DX2                !
 ! D75   D(21,16,18,14)       -179.4393         estimate D2E/DX2                !
 ! D76   D(21,16,18,24)          1.5211         estimate D2E/DX2                !
 ! D77   D(13,16,21,25)         -0.2076         estimate D2E/DX2                !
 ! D78   D(13,16,21,27)        179.7946         estimate D2E/DX2                !
 ! D79   D(18,16,21,25)        179.1161         estimate D2E/DX2                !
 ! D80   D(18,16,21,27)         -0.8818         estimate D2E/DX2                !
 ! D81   D(14,17,22,28)          0.1005         estimate D2E/DX2                !
 ! D82   D(14,17,22,29)       -179.9047         estimate D2E/DX2                !
 ! D83   D(23,17,22,28)       -179.6176         estimate D2E/DX2                !
 ! D84   D(23,17,22,29)          0.3771         estimate D2E/DX2                !
 ! D85   D(14,18,24,28)         -0.3609         estimate D2E/DX2                !
 ! D86   D(14,18,24,30)       -179.9391         estimate D2E/DX2                !
 ! D87   D(16,18,24,28)        178.5833         estimate D2E/DX2                !
 ! D88   D(16,18,24,30)         -0.9949         estimate D2E/DX2                !
 ! D89   D(15,19,25,21)          0.5266         estimate D2E/DX2                !
 ! D90   D(15,19,25,31)        179.9939         estimate D2E/DX2                !
 ! D91   D(26,19,25,21)       -179.4304         estimate D2E/DX2                !
 ! D92   D(26,19,25,31)          0.0369         estimate D2E/DX2                !
 ! D93   D(16,21,25,19)         -0.9948         estimate D2E/DX2                !
 ! D94   D(16,21,25,31)        179.5394         estimate D2E/DX2                !
 ! D95   D(27,21,25,19)        179.0031         estimate D2E/DX2                !
 ! D96   D(27,21,25,31)         -0.4627         estimate D2E/DX2                !
 ! D97   D(17,22,28,24)          0.3219         estimate D2E/DX2                !
 ! D98   D(17,22,28,32)       -179.8199         estimate D2E/DX2                !
 ! D99   D(29,22,28,24)       -179.6728         estimate D2E/DX2                !
 ! D100  D(29,22,28,32)          0.1854         estimate D2E/DX2                !
 ! D101  D(18,24,28,22)         -0.1848         estimate D2E/DX2                !
 ! D102  D(18,24,28,32)        179.9574         estimate D2E/DX2                !
 ! D103  D(30,24,28,22)        179.3924         estimate D2E/DX2                !
 ! D104  D(30,24,28,32)         -0.4654         estimate D2E/DX2                !
 ! D105  D(1,33,34,36)           5.07           estimate D2E/DX2                !
 ! D106  D(1,33,34,37)        -172.4535         estimate D2E/DX2                !
 ! D107  D(35,33,34,36)        178.1325         estimate D2E/DX2                !
 ! D108  D(35,33,34,37)          0.6091         estimate D2E/DX2                !
 ! D109  D(1,33,35,38)          -9.9972         estimate D2E/DX2                !
 ! D110  D(1,33,35,39)         172.3224         estimate D2E/DX2                !
 ! D111  D(34,33,35,38)        177.0884         estimate D2E/DX2                !
 ! D112  D(34,33,35,39)         -0.5919         estimate D2E/DX2                !
 ! D113  D(33,34,36,40)       -178.0336         estimate D2E/DX2                !
 ! D114  D(33,34,36,41)          1.4303         estimate D2E/DX2                !
 ! D115  D(37,34,36,40)         -0.793          estimate D2E/DX2                !
 ! D116  D(37,34,36,41)        178.6709         estimate D2E/DX2                !
 ! D117  D(33,34,37,39)         -0.3893         estimate D2E/DX2                !
 ! D118  D(33,34,37,42)        178.6683         estimate D2E/DX2                !
 ! D119  D(36,34,37,39)       -178.1316         estimate D2E/DX2                !
 ! D120  D(36,34,37,42)          0.926          estimate D2E/DX2                !
 ! D121  D(33,35,38,43)       -179.8148         estimate D2E/DX2                !
 ! D122  D(33,35,38,44)          0.7447         estimate D2E/DX2                !
 ! D123  D(39,35,38,43)         -2.3998         estimate D2E/DX2                !
 ! D124  D(39,35,38,44)        178.1596         estimate D2E/DX2                !
 ! D125  D(33,35,39,37)          0.345          estimate D2E/DX2                !
 ! D126  D(33,35,39,45)        179.841          estimate D2E/DX2                !
 ! D127  D(38,35,39,37)       -177.5355         estimate D2E/DX2                !
 ! D128  D(38,35,39,45)          1.9606         estimate D2E/DX2                !
 ! D129  D(34,36,40,46)          0.1455         estimate D2E/DX2                !
 ! D130  D(34,36,40,47)       -179.9173         estimate D2E/DX2                !
 ! D131  D(41,36,40,46)       -179.3217         estimate D2E/DX2                !
 ! D132  D(41,36,40,47)          0.6155         estimate D2E/DX2                !
 ! D133  D(34,37,39,35)          0.0272         estimate D2E/DX2                !
 ! D134  D(34,37,39,45)       -179.3676         estimate D2E/DX2                !
 ! D135  D(42,37,39,35)       -178.8404         estimate D2E/DX2                !
 ! D136  D(42,37,39,45)          1.7647         estimate D2E/DX2                !
 ! D137  D(34,37,42,46)         -0.3846         estimate D2E/DX2                !
 ! D138  D(34,37,42,48)       -179.8817         estimate D2E/DX2                !
 ! D139  D(39,37,42,46)        178.3705         estimate D2E/DX2                !
 ! D140  D(39,37,42,48)         -1.1266         estimate D2E/DX2                !
 ! D141  D(35,38,43,49)          1.1692         estimate D2E/DX2                !
 ! D142  D(35,38,43,50)       -178.8066         estimate D2E/DX2                !
 ! D143  D(44,38,43,49)       -179.3855         estimate D2E/DX2                !
 ! D144  D(44,38,43,50)          0.6388         estimate D2E/DX2                !
 ! D145  D(35,39,45,49)         -0.2173         estimate D2E/DX2                !
 ! D146  D(35,39,45,51)        179.7682         estimate D2E/DX2                !
 ! D147  D(37,39,45,49)        179.1174         estimate D2E/DX2                !
 ! D148  D(37,39,45,51)         -0.8972         estimate D2E/DX2                !
 ! D149  D(36,40,46,42)          0.3713         estimate D2E/DX2                !
 ! D150  D(36,40,46,52)       -179.8801         estimate D2E/DX2                !
 ! D151  D(47,40,46,42)       -179.5656         estimate D2E/DX2                !
 ! D152  D(47,40,46,52)          0.183          estimate D2E/DX2                !
 ! D153  D(37,42,46,40)         -0.2442         estimate D2E/DX2                !
 ! D154  D(37,42,46,52)       -179.9921         estimate D2E/DX2                !
 ! D155  D(48,42,46,40)        179.2516         estimate D2E/DX2                !
 ! D156  D(48,42,46,52)         -0.4962         estimate D2E/DX2                !
 ! D157  D(38,43,49,45)          0.5012         estimate D2E/DX2                !
 ! D158  D(38,43,49,53)       -179.9754         estimate D2E/DX2                !
 ! D159  D(50,43,49,45)       -179.5232         estimate D2E/DX2                !
 ! D160  D(50,43,49,53)          0.0002         estimate D2E/DX2                !
 ! D161  D(39,45,49,43)         -0.9778         estimate D2E/DX2                !
 ! D162  D(39,45,49,53)        179.5001         estimate D2E/DX2                !
 ! D163  D(51,45,49,43)        179.0368         estimate D2E/DX2                !
 ! D164  D(51,45,49,53)         -0.4853         estimate D2E/DX2                !
 ! D165  D(7,55,56,58)         177.6555         estimate D2E/DX2                !
 ! D166  D(7,55,56,59)          -3.5293         estimate D2E/DX2                !
 ! D167  D(57,55,56,58)         -0.5718         estimate D2E/DX2                !
 ! D168  D(57,55,56,59)        178.2434         estimate D2E/DX2                !
 ! D169  D(7,55,57,60)        -177.7875         estimate D2E/DX2                !
 ! D170  D(7,55,57,61)           3.1414         estimate D2E/DX2                !
 ! D171  D(56,55,57,60)          0.4373         estimate D2E/DX2                !
 ! D172  D(56,55,57,61)       -178.6338         estimate D2E/DX2                !
 ! D173  D(55,56,58,62)          0.1529         estimate D2E/DX2                !
 ! D174  D(55,56,58,63)        179.6781         estimate D2E/DX2                !
 ! D175  D(59,56,58,62)       -178.6459         estimate D2E/DX2                !
 ! D176  D(59,56,58,63)          0.8793         estimate D2E/DX2                !
 ! D177  D(55,57,60,62)          0.1161         estimate D2E/DX2                !
 ! D178  D(55,57,60,64)       -179.6455         estimate D2E/DX2                !
 ! D179  D(61,57,60,62)        179.1742         estimate D2E/DX2                !
 ! D180  D(61,57,60,64)         -0.5873         estimate D2E/DX2                !
 ! D181  D(56,58,62,60)          0.3887         estimate D2E/DX2                !
 ! D182  D(56,58,62,65)        179.9466         estimate D2E/DX2                !
 ! D183  D(63,58,62,60)       -179.1341         estimate D2E/DX2                !
 ! D184  D(63,58,62,65)          0.4239         estimate D2E/DX2                !
 ! D185  D(57,60,62,58)         -0.5258         estimate D2E/DX2                !
 ! D186  D(57,60,62,65)        179.9162         estimate D2E/DX2                !
 ! D187  D(64,60,62,58)        179.2349         estimate D2E/DX2                !
 ! D188  D(64,60,62,65)         -0.3231         estimate D2E/DX2                !
 --------------------------------------------------------------------------------
 Trust Radius=3.00D-01 FncErr=1.00D-07 GrdErr=1.00D-06 EigMax=2.50D+02 EigMin=1.00D-04
 Number of steps in this run=    390 maximum allowed number of steps=    390.
 GradGradGradGradGradGradGradGradGradGradGradGradGradGradGradGradGradGrad

 Leave Link  103 at Wed Aug 14 12:27:15 2024, MaxMem=  2147483648 cpu:               0.3 elap:               0.0
 (Enter /apps/gaussian/g16/l202.exe)
 Stoichiometry    C36H24N2O2S
 Framework group  C1[X(C36H24N2O2S)]
 Deg. of freedom   189
 Full point group                 C1      NOp   1
 Largest Abelian subgroup         C1      NOp   1
 Largest concise Abelian subgroup C1      NOp   1
                         Standard orientation:                         
 ---------------------------------------------------------------------
 Center     Atomic      Atomic             Coordinates (Angstroms)
 Number     Number       Type             X           Y           Z
 ---------------------------------------------------------------------
      1          6           0       -0.292398   -1.327126    0.338022
      2          6           0        0.275701   -0.345724   -0.507751
      3          6           0        1.590108   -0.505535   -0.945958
      4          6           0        2.331520   -1.608629   -0.541782
      5          6           0        1.777710   -2.596704    0.265791
      6          6           0        0.463946   -2.448931    0.693666
      7         16           0        4.050464   -1.722413   -1.043714
      8          8           0        4.157385   -1.184125   -2.399391
      9          1           0        2.014368    0.228245   -1.622010
     10          1           0        2.371156   -3.456065    0.554836
     11          1           0        0.012048   -3.188918    1.344737
     12          7           0       -0.425587    0.812932   -0.894514
     13          6           0       -1.689155    0.871504   -1.490054
     14          6           0       -0.025510    2.115454   -0.576698
     15          6           0       -2.460656   -0.160885   -2.018803
     16          6           0       -2.108974    2.217088   -1.539842
     17          6           0        1.140846    2.551978    0.052450
     18          6           0       -1.046996    3.012103   -0.957613
     19          6           0       -3.696429    0.173530   -2.559666
     20          1           0       -2.119554   -1.189031   -2.005972
     21          6           0       -3.350681    2.530429   -2.097595
     22          6           0        1.274298    3.917860    0.283432
     23          1           0        1.916837    1.857924    0.357222
     24          6           0       -0.887371    4.378131   -0.716919
     25          6           0       -4.142808    1.503231   -2.595692
     26          1           0       -4.324440   -0.614261   -2.961553
     27          1           0       -3.689459    3.560505   -2.140277
     28          6           0        0.275170    4.824894   -0.098383
     29          1           0        2.172483    4.284444    0.769831
     30          1           0       -1.664434    5.079441   -1.003267
     31          1           0       -5.112759    1.730019   -3.025029
     32          1           0        0.411509    5.883743    0.093534
     33          7           0       -1.611391   -1.215991    0.819826
     34          6           0       -2.642997   -2.117761    0.535737
     35          6           0       -2.153245   -0.129723    1.514325
     36          6           0       -2.593990   -3.322215   -0.166008
     37          6           0       -3.854741   -1.598079    1.039645
     38          6           0       -1.506773    0.981553    2.051103
     39          6           0       -3.541324   -0.329327    1.664485
     40          6           0       -3.789022   -4.013405   -0.342168
     41          1           0       -1.663214   -3.705965   -0.569197
     42          6           0       -5.039926   -2.311861    0.851800
     43          6           0       -2.289349    1.926114    2.704669
     44          1           0       -0.435748    1.115863    1.958456
     45          6           0       -4.305938    0.628529    2.334333
     46          6           0       -5.000300   -3.518991    0.162957
     47          1           0       -3.779347   -4.953886   -0.883221
     48          1           0       -5.979405   -1.923882    1.231926
     49          6           0       -3.675350    1.757762    2.842499
     50          1           0       -1.812935    2.810276    3.114432
     51          1           0       -5.375631    0.491188    2.454732
     52          1           0       -5.913881   -4.083330    0.010029
     53          1           0       -4.257212    2.514258    3.357984
     54          8           0        4.515306   -3.068447   -0.708089
     55          6           0        4.845043   -0.560653    0.068174
     56          6           0        4.991141    0.766958   -0.331281
     57          6           0        5.267026   -0.999528    1.321594
     58          6           0        5.564120    1.676352    0.554950
     59          1           0        4.678380    1.070243   -1.324129
     60          6           0        5.840876   -0.081044    2.197194
     61          1           0        5.159149   -2.043591    1.593165
     62          6           0        5.983571    1.253413    1.816379
     63          1           0        5.689329    2.711637    0.256777
     64          1           0        6.179735   -0.407894    3.174235
     65          1           0        6.430048    1.965048    2.502887
 ---------------------------------------------------------------------
 Rotational constants (GHZ):           0.1349447           0.0677658           0.0563722
 Leave Link  202 at Wed Aug 14 12:27:15 2024, MaxMem=  2147483648 cpu:               0.2 elap:               0.0
 (Enter /apps/gaussian/g16/l301.exe)
 Standard basis: 6-31G(d,p) (6D, 7F)
 Ernie: Thresh=  0.10000D-02 Tol=  0.10000D-05 Strict=F.
 There are   739 symmetry adapted cartesian basis functions of A   symmetry.
 There are   739 symmetry adapted basis functions of A   symmetry.
   739 basis functions,  1340 primitive gaussians,   739 cartesian basis functions
   143 alpha electrons      143 beta electrons
       nuclear repulsion energy      4817.0514564087 Hartrees.
 IExCor= 4639 DFT=T Ex+Corr=wB97XD ExCW=0 ScaHFX=  1.000000
 ScaDFX=  1.000000  1.000000  1.000000  1.000000 ScalE2=  1.000000  1.000000
 IRadAn=      5 IRanWt=     -1 IRanGd=            0 ICorTp=0 IEmpDi=121
 HFx  wShort=  0.000000 wLong=  0.136000 cFull=  0.222036 cShort=  0.000000 cLong=  0.777964
 DFx  wShort=  0.000000 wLong=  0.136000 cFull=  0.000000 cShort=  0.000000 cLong=  1.000000
 NAtoms=   65 NActive=   65 NUniq=   65 SFac= 1.00D+00 NAtFMM=   60 NAOKFM=T Big=T
 Integral buffers will be    131072 words long.
 Raffenetti 1 integral format.
 Two-electron integral symmetry is turned on.
 R6Disp:  Grimme-D2 Dispersion energy=       -0.0659606160 Hartrees.
 Nuclear repulsion after empirical dispersion term =     4816.9854957927 Hartrees.
 Leave Link  301 at Wed Aug 14 12:27:15 2024, MaxMem=  2147483648 cpu:               0.6 elap:               0.1
 (Enter /apps/gaussian/g16/l302.exe)
 NPDir=0 NMtPBC=     1 NCelOv=     1 NCel=       1 NClECP=     1 NCelD=      1
         NCelK=      1 NCelE2=     1 NClLst=     1 CellRange=     0.0.
 One-electron integrals computed using PRISM.
 One-electron integral symmetry used in STVInt
 NBasis=   739 RedAO= T EigKep=  2.69D-04  NBF=   739
 NBsUse=   739 1.00D-06 EigRej= -1.00D+00 NBFU=   739
 Precomputing XC quadrature grid using
 IXCGrd= 4 IRadAn=           5 IRanWt=          -1 IRanGd=           0 AccXCQ= 0.00D+00.
 Generated NRdTot=       0 NPtTot=           0 NUsed=           0 NTot=          32
 NSgBfM=   732   732   732   732   732 MxSgAt=    65 MxSgA2=    65.
 Leave Link  302 at Wed Aug 14 12:27:17 2024, MaxMem=  2147483648 cpu:              26.7 elap:               2.4
 (Enter /apps/gaussian/g16/l303.exe)
 DipDrv:  MaxL=1.
 Leave Link  303 at Wed Aug 14 12:27:18 2024, MaxMem=  2147483648 cpu:               2.1 elap:               0.3
 (Enter /apps/gaussian/g16/l308.exe)
 Leave Link  308 at Wed Aug 14 12:27:18 2024, MaxMem=  2147483648 cpu:               1.6 elap:               0.2
 (Enter /apps/gaussian/g16/l401.exe)
 ExpMin= 1.17D-01 ExpMax= 2.19D+04 ExpMxC= 3.30D+03 IAcc=3 IRadAn=         5 AccDes= 0.00D+00
 Harris functional with IExCor= 4639 and IRadAn=       5 diagonalized for initial guess.
 HarFok:  IExCor= 4639 AccDes= 0.00D+00 IRadAn=         5 IDoV= 1 UseB2=F ITyADJ=14
 ICtDFT=  3500011 ScaDFX=  1.000000  1.000000  1.000000  1.000000
 FoFCou: FMM=F IPFlag=           0 FMFlag=      100000 FMFlg1=        2001
         NFxFlg=           0 DoJE=T BraDBF=F KetDBF=T FulRan=T
         wScrn=  0.000000 ICntrl=       500 IOpCl=  0 I1Cent=   200000004 NGrid=           0
         NMat0=    1 NMatS0=      1 NMatT0=    0 NMatD0=    1 NMtDS0=    0 NMtDT0=    0
 Petite list used in FoFCou.
 Harris En= -1972.37202578536    
 JPrj=0 DoOrth=F DoCkMO=F.
 Leave Link  401 at Wed Aug 14 12:27:23 2024, MaxMem=  2147483648 cpu:              57.7 elap:               5.1
 (Enter /apps/gaussian/g16/l502.exe)
 Integral symmetry usage will be decided dynamically.
 Closed shell SCF:
 Using DIIS extrapolation, IDIIS=  1040.
 NGot=  2147483648 LenX=  2146370496 LenY=  2145823636
 Requested convergence on RMS density matrix=1.00D-08 within 128 cycles.
 Requested convergence on MAX density matrix=1.00D-06.
 Requested convergence on             energy=1.00D-06.
 No special actions if energy rises.
 Fock matrices will be formed incrementally for  20 cycles.
 Integral accuracy reduced to 1.0D-05 until final iterations.

 Cycle   1  Pass 0  IDiag  1:
 FoFJK:  IHMeth= 1 ICntrl=       0 DoSepK=T KAlg= 0 I1Cent=           0 FoldK=F
 IRaf=         1 NMat=       1 IRICut=       1 DoRegI=T DoRafI=F ISym2E= 0 IDoP0=0 IntGTp=1.
 FoFCou: FMM=T IPFlag=           0 FMFlag=      100000 FMFlg1=        2001
         NFxFlg=           0 DoJE=T BraDBF=F KetDBF=F FulRan=T
         wScrn=  0.000000 ICntrl=       500 IOpCl=  0 I1Cent=           0 NGrid=           0
         NMat0=    1 NMatS0=      1 NMatT0=    0 NMatD0=    1 NMtDS0=    0 NMtDT0=    0
 Symmetry not used in FoFCou.
 FMM levels:  10  Number of levels for PrismC:   9
 E= -2043.39650260598    
 DIIS: error= 6.17D-02 at cycle   1 NSaved=   1.
 NSaved= 1 IEnMin= 1 EnMin= -2043.39650260598     IErMin= 1 ErrMin= 6.17D-02
 ErrMax= 6.17D-02  0.00D+00 EMaxC= 1.00D-01 BMatC= 1.95D+00 BMatP= 1.95D+00
 IDIUse=3 WtCom= 3.83D-01 WtEn= 6.17D-01
 Coeff-Com:  0.100D+01
 Coeff-En:   0.100D+01
 Coeff:      0.100D+01
 Gap=     0.380 Goal=   None    Shift=    0.000
 GapD=    0.380 DampG=1.000 DampE=0.500 DampFc=0.5000 IDamp=-1.
 Damping current iteration by 5.00D-01
 RMSDP=2.71D-03 MaxDP=4.64D-01              OVMax= 2.12D-01

 Cycle   2  Pass 0  IDiag  1:
 RMSU=  1.36D-03    CP:  1.00D+00
 E= -2043.65060945814     Delta-E=       -0.254106852160 Rises=F Damp=T
 DIIS: error= 3.12D-02 at cycle   2 NSaved=   2.
 NSaved= 2 IEnMin= 2 EnMin= -2043.65060945814     IErMin= 2 ErrMin= 3.12D-02
 ErrMax= 3.12D-02  0.00D+00 EMaxC= 1.00D-01 BMatC= 4.02D-01 BMatP= 1.95D+00
 IDIUse=3 WtCom= 6.88D-01 WtEn= 3.12D-01
 Coeff-Com: -0.298D+00 0.130D+01
 Coeff-En:   0.830D-01 0.917D+00
 Coeff:     -0.179D+00 0.118D+01
 Gap=     0.301 Goal=   None    Shift=    0.000
 RMSDP=1.26D-03 MaxDP=7.51D-02 DE=-2.54D-01 OVMax= 2.67D-01

 Cycle   3  Pass 0  IDiag  1:
 RMSU=  1.22D-03    CP:  1.00D+00  7.68D-01
 E= -2043.79011619942     Delta-E=       -0.139506741286 Rises=F Damp=F
 DIIS: error= 1.33D-02 at cycle   3 NSaved=   3.
 NSaved= 3 IEnMin= 3 EnMin= -2043.79011619942     IErMin= 3 ErrMin= 1.33D-02
 ErrMax= 1.33D-02  0.00D+00 EMaxC= 1.00D-01 BMatC= 2.45D-01 BMatP= 4.02D-01
 IDIUse=3 WtCom= 8.67D-01 WtEn= 1.33D-01
 Coeff-Com: -0.314D+00 0.709D+00 0.604D+00
 Coeff-En:   0.000D+00 0.239D+00 0.761D+00
 Coeff:     -0.272D+00 0.647D+00 0.625D+00
 Gap=     0.286 Goal=   None    Shift=    0.000
 RMSDP=9.82D-04 MaxDP=6.88D-02 DE=-1.40D-01 OVMax= 1.28D-01

 Cycle   4  Pass 0  IDiag  1:
 RMSU=  4.71D-04    CP:  1.00D+00  1.20D+00  4.81D-01
 E= -2044.00035005922     Delta-E=       -0.210233859797 Rises=F Damp=F
 DIIS: error= 4.73D-03 at cycle   4 NSaved=   4.
 NSaved= 4 IEnMin= 4 EnMin= -2044.00035005922     IErMin= 4 ErrMin= 4.73D-03
 ErrMax= 4.73D-03  0.00D+00 EMaxC= 1.00D-01 BMatC= 2.57D-02 BMatP= 2.45D-01
 IDIUse=3 WtCom= 9.53D-01 WtEn= 4.73D-02
 Coeff-Com: -0.129D+00 0.272D+00 0.354D+00 0.503D+00
 Coeff-En:   0.000D+00 0.000D+00 0.776D-01 0.922D+00
 Coeff:     -0.123D+00 0.259D+00 0.341D+00 0.523D+00
 Gap=     0.247 Goal=   None    Shift=    0.000
 RMSDP=2.95D-04 MaxDP=2.37D-02 DE=-2.10D-01 OVMax= 3.11D-02

 Cycle   5  Pass 0  IDiag  1:
 RMSU=  1.13D-04    CP:  1.00D+00  1.14D+00  6.32D-01  6.14D-01
 E= -2044.02586593577     Delta-E=       -0.025515876555 Rises=F Damp=F
 DIIS: error= 6.04D-04 at cycle   5 NSaved=   5.
 NSaved= 5 IEnMin= 5 EnMin= -2044.02586593577     IErMin= 5 ErrMin= 6.04D-04
 ErrMax= 6.04D-04  0.00D+00 EMaxC= 1.00D-01 BMatC= 7.14D-04 BMatP= 2.57D-02
 IDIUse=3 WtCom= 9.94D-01 WtEn= 6.04D-03
 Coeff-Com: -0.353D-01 0.720D-01 0.112D+00 0.230D+00 0.621D+00
 Coeff-En:   0.000D+00 0.000D+00 0.000D+00 0.000D+00 0.100D+01
 Coeff:     -0.351D-01 0.716D-01 0.112D+00 0.228D+00 0.624D+00
 Gap=     0.245 Goal=   None    Shift=    0.000
 RMSDP=5.32D-05 MaxDP=4.01D-03 DE=-2.55D-02 OVMax= 6.78D-03

 Cycle   6  Pass 0  IDiag  1:
 RMSU=  4.18D-05    CP:  1.00D+00  1.14D+00  6.24D-01  6.64D-01  8.36D-01
 E= -2044.02647938178     Delta-E=       -0.000613446010 Rises=F Damp=F
 DIIS: error= 4.67D-04 at cycle   6 NSaved=   6.
 NSaved= 6 IEnMin= 6 EnMin= -2044.02647938178     IErMin= 6 ErrMin= 4.67D-04
 ErrMax= 4.67D-04  0.00D+00 EMaxC= 1.00D-01 BMatC= 1.58D-04 BMatP= 7.14D-04
 IDIUse=3 WtCom= 9.95D-01 WtEn= 4.67D-03
 Coeff-Com:  0.116D-01-0.252D-01-0.203D-01 0.387D-02 0.342D+00 0.688D+00
 Coeff-En:   0.000D+00 0.000D+00 0.000D+00 0.000D+00 0.108D+00 0.892D+00
 Coeff:      0.115D-01-0.251D-01-0.202D-01 0.385D-02 0.341D+00 0.689D+00
 Gap=     0.246 Goal=   None    Shift=    0.000
 RMSDP=2.39D-05 MaxDP=1.96D-03 DE=-6.13D-04 OVMax= 2.47D-03

 Cycle   7  Pass 0  IDiag  1:
 RMSU=  1.67D-05    CP:  1.00D+00  1.14D+00  6.30D-01  6.70D-01  9.40D-01
                    CP:  7.78D-01
 E= -2044.02663137237     Delta-E=       -0.000151990583 Rises=F Damp=F
 DIIS: error= 1.12D-04 at cycle   7 NSaved=   7.
 NSaved= 7 IEnMin= 7 EnMin= -2044.02663137237     IErMin= 7 ErrMin= 1.12D-04
 ErrMax= 1.12D-04  0.00D+00 EMaxC= 1.00D-01 BMatC= 1.27D-05 BMatP= 1.58D-04
 IDIUse=3 WtCom= 9.99D-01 WtEn= 1.12D-03
 Coeff-Com:  0.768D-02-0.163D-01-0.161D-01-0.136D-01 0.122D+00 0.338D+00
 Coeff-Com:  0.579D+00
 Coeff-En:   0.000D+00 0.000D+00 0.000D+00 0.000D+00 0.000D+00 0.000D+00
 Coeff-En:   0.100D+01
 Coeff:      0.767D-02-0.163D-01-0.161D-01-0.136D-01 0.122D+00 0.338D+00
 Coeff:      0.579D+00
 Gap=     0.246 Goal=   None    Shift=    0.000
 RMSDP=7.11D-06 MaxDP=7.99D-04 DE=-1.52D-04 OVMax= 7.60D-04

 Initial convergence to 1.0D-05 achieved.  Increase integral accuracy.
 Cycle   8  Pass 1  IDiag  1:
 E= -2044.02674373540     Delta-E=       -0.000112363036 Rises=F Damp=F
 DIIS: error= 2.76D-04 at cycle   1 NSaved=   1.
 NSaved= 1 IEnMin= 1 EnMin= -2044.02674373540     IErMin= 1 ErrMin= 2.76D-04
 ErrMax= 2.76D-04  0.00D+00 EMaxC= 1.00D-01 BMatC= 2.90D-05 BMatP= 2.90D-05
 IDIUse=3 WtCom= 9.97D-01 WtEn= 2.76D-03
 Coeff-Com:  0.100D+01
 Coeff-En:   0.100D+01
 Coeff:      0.100D+01
 Gap=     0.246 Goal=   None    Shift=    0.000
 RMSDP=7.11D-06 MaxDP=7.99D-04 DE=-1.12D-04 OVMax= 5.89D-04

 Cycle   9  Pass 1  IDiag  1:
 RMSU=  1.34D-04    CP:  1.00D+00
 E= -2044.02676837745     Delta-E=       -0.000024642042 Rises=F Damp=F
 DIIS: error= 3.30D-05 at cycle   2 NSaved=   2.
 NSaved= 2 IEnMin= 2 EnMin= -2044.02676837745     IErMin= 2 ErrMin= 3.30D-05
 ErrMax= 3.30D-05  0.00D+00 EMaxC= 1.00D-01 BMatC= 1.33D-06 BMatP= 2.90D-05
 IDIUse=1 WtCom= 1.00D+00 WtEn= 0.00D+00
 Coeff-Com:  0.380D-01 0.962D+00
 Coeff:      0.380D-01 0.962D+00
 Gap=     0.246 Goal=   None    Shift=    0.000
 RMSDP=7.03D-06 MaxDP=3.80D-04 DE=-2.46D-05 OVMax= 4.77D-04

 Cycle  10  Pass 1  IDiag  1:
 RMSU=  3.83D-06    CP:  1.00D+00  1.04D+00
 E= -2044.02676782321     Delta-E=        0.000000554235 Rises=F Damp=F
 DIIS: error= 3.95D-05 at cycle   3 NSaved=   3.
 NSaved= 3 IEnMin= 2 EnMin= -2044.02676837745     IErMin= 2 ErrMin= 3.30D-05
 ErrMax= 3.95D-05  0.00D+00 EMaxC= 1.00D-01 BMatC= 2.34D-06 BMatP= 1.33D-06
 IDIUse=1 WtCom= 1.00D+00 WtEn= 0.00D+00
 Coeff-Com: -0.238D-01 0.582D+00 0.442D+00
 Coeff:     -0.238D-01 0.582D+00 0.442D+00
 Gap=     0.246 Goal=   None    Shift=    0.000
 RMSDP=2.23D-06 MaxDP=2.37D-04 DE= 5.54D-07 OVMax= 2.01D-04

 Cycle  11  Pass 1  IDiag  1:
 RMSU=  1.09D-06    CP:  1.00D+00  1.05D+00  5.23D-01
 E= -2044.02676981374     Delta-E=       -0.000001990531 Rises=F Damp=F
 DIIS: error= 4.32D-06 at cycle   4 NSaved=   4.
 NSaved= 4 IEnMin= 4 EnMin= -2044.02676981374     IErMin= 4 ErrMin= 4.32D-06
 ErrMax= 4.32D-06  0.00D+00 EMaxC= 1.00D-01 BMatC= 3.25D-08 BMatP= 1.33D-06
 IDIUse=1 WtCom= 1.00D+00 WtEn= 0.00D+00
 Coeff-Com: -0.125D-01 0.263D+00 0.207D+00 0.543D+00
 Coeff:     -0.125D-01 0.263D+00 0.207D+00 0.543D+00
 Gap=     0.246 Goal=   None    Shift=    0.000
 RMSDP=3.61D-07 MaxDP=2.51D-05 DE=-1.99D-06 OVMax= 6.53D-05

 Cycle  12  Pass 1  IDiag  1:
 RMSU=  3.38D-07    CP:  1.00D+00  1.05D+00  5.51D-01  9.89D-01
 E= -2044.02676985376     Delta-E=       -0.000000040017 Rises=F Damp=F
 DIIS: error= 2.60D-06 at cycle   5 NSaved=   5.
 NSaved= 5 IEnMin= 5 EnMin= -2044.02676985376     IErMin= 5 ErrMin= 2.60D-06
 ErrMax= 2.60D-06  0.00D+00 EMaxC= 1.00D-01 BMatC= 5.94D-09 BMatP= 3.25D-08
 IDIUse=1 WtCom= 1.00D+00 WtEn= 0.00D+00
 Coeff-Com:  0.462D-02-0.127D+00-0.106D+00 0.201D+00 0.103D+01
 Coeff:      0.462D-02-0.127D+00-0.106D+00 0.201D+00 0.103D+01
 Gap=     0.246 Goal=   None    Shift=    0.000
 RMSDP=3.17D-07 MaxDP=1.17D-05 DE=-4.00D-08 OVMax= 6.38D-05

 Cycle  13  Pass 1  IDiag  1:
 RMSU=  2.03D-07    CP:  1.00D+00  1.05D+00  5.58D-01  1.20D+00  1.12D+00
 E= -2044.02676987291     Delta-E=       -0.000000019157 Rises=F Damp=F
 DIIS: error= 9.53D-07 at cycle   6 NSaved=   6.
 NSaved= 6 IEnMin= 6 EnMin= -2044.02676987291     IErMin= 6 ErrMin= 9.53D-07
 ErrMax= 9.53D-07  0.00D+00 EMaxC= 1.00D-01 BMatC= 9.14D-10 BMatP= 5.94D-09
 IDIUse=1 WtCom= 1.00D+00 WtEn= 0.00D+00
 Coeff-Com:  0.311D-02-0.779D-01-0.654D-01 0.367D-01 0.452D+00 0.652D+00
 Coeff:      0.311D-02-0.779D-01-0.654D-01 0.367D-01 0.452D+00 0.652D+00
 Gap=     0.246 Goal=   None    Shift=    0.000
 RMSDP=9.06D-08 MaxDP=5.22D-06 DE=-1.92D-08 OVMax= 2.29D-05

 Cycle  14  Pass 1  IDiag  1:
 RMSU=  7.24D-08    CP:  1.00D+00  1.05D+00  5.60D-01  1.22D+00  1.25D+00
                    CP:  1.08D+00
 E= -2044.02676987492     Delta-E=       -0.000000002009 Rises=F Damp=F
 DIIS: error= 5.72D-07 at cycle   7 NSaved=   7.
 NSaved= 7 IEnMin= 7 EnMin= -2044.02676987492     IErMin= 7 ErrMin= 5.72D-07
 ErrMax= 5.72D-07  0.00D+00 EMaxC= 1.00D-01 BMatC= 2.31D-10 BMatP= 9.14D-10
 IDIUse=1 WtCom= 1.00D+00 WtEn= 0.00D+00
 Coeff-Com:  0.361D-03-0.626D-02-0.538D-02-0.425D-01-0.615D-01 0.323D+00
 Coeff-Com:  0.792D+00
 Coeff:      0.361D-03-0.626D-02-0.538D-02-0.425D-01-0.615D-01 0.323D+00
 Coeff:      0.792D+00
 Gap=     0.246 Goal=   None    Shift=    0.000
 RMSDP=5.66D-08 MaxDP=3.46D-06 DE=-2.01D-09 OVMax= 1.11D-05

 Cycle  15  Pass 1  IDiag  1:
 RMSU=  2.71D-08    CP:  1.00D+00  1.05D+00  5.61D-01  1.24D+00  1.30D+00
                    CP:  1.28D+00  9.41D-01
 E= -2044.02676987548     Delta-E=       -0.000000000554 Rises=F Damp=F
 DIIS: error= 1.88D-07 at cycle   8 NSaved=   8.
 NSaved= 8 IEnMin= 8 EnMin= -2044.02676987548     IErMin= 8 ErrMin= 1.88D-07
 ErrMax= 1.88D-07  0.00D+00 EMaxC= 1.00D-01 BMatC= 5.22D-11 BMatP= 2.31D-10
 IDIUse=1 WtCom= 1.00D+00 WtEn= 0.00D+00
 Coeff-Com: -0.336D-03 0.102D-01 0.860D-02-0.269D-01-0.108D+00 0.641D-01
 Coeff-Com:  0.445D+00 0.607D+00
 Coeff:     -0.336D-03 0.102D-01 0.860D-02-0.269D-01-0.108D+00 0.641D-01
 Coeff:      0.445D+00 0.607D+00
 Gap=     0.246 Goal=   None    Shift=    0.000
 RMSDP=1.68D-08 MaxDP=1.86D-06 DE=-5.54D-10 OVMax= 3.67D-06

 Cycle  16  Pass 1  IDiag  1:
 RMSU=  1.09D-08    CP:  1.00D+00  1.05D+00  5.61D-01  1.24D+00  1.31D+00
                    CP:  1.32D+00  1.04D+00  8.43D-01
 E= -2044.02676987558     Delta-E=       -0.000000000103 Rises=F Damp=F
 DIIS: error= 3.50D-08 at cycle   9 NSaved=   9.
 NSaved= 9 IEnMin= 9 EnMin= -2044.02676987558     IErMin= 9 ErrMin= 3.50D-08
 ErrMax= 3.50D-08  0.00D+00 EMaxC= 1.00D-01 BMatC= 1.88D-12 BMatP= 5.22D-11
 IDIUse=1 WtCom= 1.00D+00 WtEn= 0.00D+00
 Coeff-Com: -0.122D-03 0.307D-02 0.280D-02-0.995D-03-0.189D-01-0.267D-01
 Coeff-Com:  0.199D-01 0.957D-01 0.925D+00
 Coeff:     -0.122D-03 0.307D-02 0.280D-02-0.995D-03-0.189D-01-0.267D-01
 Coeff:      0.199D-01 0.957D-01 0.925D+00
 Gap=     0.246 Goal=   None    Shift=    0.000
 RMSDP=5.77D-09 MaxDP=2.54D-07 DE=-1.03D-10 OVMax= 1.37D-06

 SCF Done:  E(RwB97XD) =  -2044.02676988     A.U. after   16 cycles
            NFock= 16  Conv=0.58D-08     -V/T= 2.0081
 KE= 2.027548195649D+03 PE=-1.439689057062D+04 EE= 5.508330109302D+03
 Leave Link  502 at Wed Aug 14 12:32:17 2024, MaxMem=  2147483648 cpu:            2640.8 elap:             293.3
 (Enter /apps/gaussian/g16/l801.exe)
 DoSCS=F DFT=T ScalE2(SS,OS)=  1.000000  1.000000
 ExpMin= 1.17D-01 ExpMax= 2.19D+04 ExpMxC= 3.30D+03 IAcc=3 IRadAn=         5 AccDes= 0.00D+00
 HarFok:  IExCor=  205 AccDes= 0.00D+00 IRadAn=         5 IDoV=-2 UseB2=F ITyADJ=14
 ICtDFT= 12500011 ScaDFX=  1.000000  1.000000  1.000000  1.000000
 GSVD:  LWork=       -2385 too small for GESVD, short by       10800 words or       10800 for optimal perf.
 Largest valence mixing into a core orbital is  1.65D-04
 Largest core mixing into a valence orbital is  3.37D-05
 Range of M.O.s used for correlation:    46   739
 NBasis=   739 NAE=   143 NBE=   143 NFC=    45 NFV=     0
 NROrb=    694 NOA=    98 NOB=    98 NVA=   596 NVB=   596
 Leave Link  801 at Wed Aug 14 12:32:19 2024, MaxMem=  2147483648 cpu:              18.1 elap:               2.1
 (Enter /apps/gaussian/g16/l914.exe)
 RHF ground state
 Two-electron integrals replicated using symmetry.
 MDV=  2147483648 DFT=T DoStab=F Mixed=T DoRPA=F DoScal=F NonHer=F
 Making orbital integer symmetry assigments:
 Orbital symmetries:
       Occupied  (A) (A) (A) (A) (A) (A) (A) (A) (A) (A) (A) (A)
                 (A) (A) (A) (A) (A) (A) (A) (A) (A) (A) (A) (A)
                 (A) (A) (A) (A) (A) (A) (A) (A) (A) (A) (A) (A)
                 (A) (A) (A) (A) (A) (A) (A) (A) (A) (A) (A) (A)
                 (A) (A) (A) (A) (A) (A) (A) (A) (A) (A) (A) (A)
                 (A) (A) (A) (A) (A) (A) (A) (A) (A) (A) (A) (A)
                 (A) (A) (A) (A) (A) (A) (A) (A) (A) (A) (A) (A)
                 (A) (A) (A) (A) (A) (A) (A) (A) (A) (A) (A) (A)
                 (A) (A) (A) (A) (A) (A) (A) (A) (A) (A) (A) (A)
                 (A) (A) (A) (A) (A) (A) (A) (A) (A) (A) (A) (A)
                 (A) (A) (A) (A) (A) (A) (A) (A) (A) (A) (A) (A)
                 (A) (A) (A) (A) (A) (A) (A) (A) (A) (A) (A)
       Virtual   (A) (A) (A) (A) (A) (A) (A) (A) (A) (A) (A) (A)
                 (A) (A) (A) (A) (A) (A) (A) (A) (A) (A) (A) (A)
                 (A) (A) (A) (A) (A) (A) (A) (A) (A) (A) (A) (A)
                 (A) (A) (A) (A) (A) (A) (A) (A) (A) (A) (A) (A)
                 (A) (A) (A) (A) (A) (A) (A) (A) (A) (A) (A) (A)
                 (A) (A) (A) (A) (A) (A) (A) (A) (A) (A) (A) (A)
                 (A) (A) (A) (A) (A) (A) (A) (A) (A) (A) (A) (A)
                 (A) (A) (A) (A) (A) (A) (A) (A) (A) (A) (A) (A)
                 (A) (A) (A) (A) (A) (A) (A) (A) (A) (A) (A) (A)
                 (A) (A) (A) (A) (A) (A) (A) (A) (A) (A) (A) (A)
                 (A) (A) (A) (A) (A) (A) (A) (A) (A) (A) (A) (A)
                 (A) (A) (A) (A) (A) (A) (A) (A) (A) (A) (A) (A)
                 (A) (A) (A) (A) (A) (A) (A) (A) (A) (A) (A) (A)
                 (A) (A) (A) (A) (A) (A) (A) (A) (A) (A) (A) (A)
                 (A) (A) (A) (A) (A) (A) (A) (A) (A) (A) (A) (A)
                 (A) (A) (A) (A) (A) (A) (A) (A) (A) (A) (A) (A)
                 (A) (A) (A) (A) (A) (A) (A) (A) (A) (A) (A) (A)
                 (A) (A) (A) (A) (A) (A) (A) (A) (A) (A) (A) (A)
                 (A) (A) (A) (A) (A) (A) (A) (A) (A) (A) (A) (A)
                 (A) (A) (A) (A) (A) (A) (A) (A) (A) (A) (A) (A)
                 (A) (A) (A) (A) (A) (A) (A) (A) (A) (A) (A) (A)
                 (A) (A) (A) (A) (A) (A) (A) (A) (A) (A) (A) (A)
                 (A) (A) (A) (A) (A) (A) (A) (A) (A) (A) (A) (A)
                 (A) (A) (A) (A) (A) (A) (A) (A) (A) (A) (A) (A)
                 (A) (A) (A) (A) (A) (A) (A) (A) (A) (A) (A) (A)
                 (A) (A) (A) (A) (A) (A) (A) (A) (A) (A) (A) (A)
                 (A) (A) (A) (A) (A) (A) (A) (A) (A) (A) (A) (A)
                 (A) (A) (A) (A) (A) (A) (A) (A) (A) (A) (A) (A)
                 (A) (A) (A) (A) (A) (A) (A) (A) (A) (A) (A) (A)
                 (A) (A) (A) (A) (A) (A) (A) (A) (A) (A) (A) (A)
                 (A) (A) (A) (A) (A) (A) (A) (A) (A) (A) (A) (A)
                 (A) (A) (A) (A) (A) (A) (A) (A) (A) (A) (A) (A)
                 (A) (A) (A) (A) (A) (A) (A) (A) (A) (A) (A) (A)
                 (A) (A) (A) (A) (A) (A) (A) (A) (A) (A) (A) (A)
                 (A) (A) (A) (A) (A) (A) (A) (A) (A) (A) (A) (A)
                 (A) (A) (A) (A) (A) (A) (A) (A) (A) (A) (A) (A)
                 (A) (A) (A) (A) (A) (A) (A) (A) (A) (A) (A) (A)
                 (A) (A) (A) (A) (A) (A) (A) (A) (A) (A) (A) (A)
                 (A) (A) (A) (A) (A) (A) (A) (A) (A) (A) (A) (A)
                 (A) (A) (A) (A) (A) (A) (A) (A) (A) (A) (A) (A)
                 (A) (A) (A) (A) (A) (A) (A) (A) (A) (A) (A) (A)
                 (A) (A) (A) (A) (A) (A) (A) (A) (A) (A) (A) (A)
                 (A) (A) (A) (A) (A) (A) (A) (A) (A) (A) (A) (A)
                 (A) (A) (A) (A) (A) (A) (A) (A) (A) (A) (A) (A)
                 (A) (A) (A) (A) (A) (A) (A) (A) (A) (A) (A) (A)
                 (A) (A) (A) (A) (A) (A) (A) (A) (A) (A) (A) (A)
                 (A) (A) (A) (A) (A) (A) (A) (A) (A) (A) (A) (A)
                 (A) (A) (A) (A) (A) (A) (A) (A) (A) (A) (A) (A)
                 (A) (A) (A) (A) (A) (A) (A) (A) (A) (A) (A) (A)
                 (A) (A) (A) (A) (A) (A) (A) (A)
    16 initial guesses have been made.
 Convergence on wavefunction:    0.000001000000000
 Davidson Disk Diagonalization:  ConvIn= 1.00D-06 SkipCon=T Conv= 1.00D-06.
 Max sub-space:  2000 roots to seek:    16 dimension of matrix:       116816
 Iteration     1 Dimension    16 NMult     0 NNew     16
 CISAX will form    16 AO SS matrices at one time.
 NMat=    16 NSing=     0 JSym2X= 0.
 FoFJK:  IHMeth= 1 ICntrl=       0 DoSepK=T KAlg= 0 I1Cent=           0 FoldK=F
 IRaf=         1 NMat=      32 IRICut=       1 DoRegI=T DoRafI=F ISym2E= 0 IDoP0=0 IntGTp=1.
 FoFCou: FMM=T IPFlag=           0 FMFlag=      100000 FMFlg1=        2001
         NFxFlg=           0 DoJE=F BraDBF=F KetDBF=F FulRan=T
         wScrn=  0.000000 ICntrl=         0 IOpCl=  0 I1Cent=           0 NGrid=           0
         NMat0=   32 NMatS0=      0 NMatT0=   16 NMatD0=   32 NMtDS0=    0 NMtDT0=    0
         CW=    0.222036    0.777964
         WU=    0.000000   27.032872
 Symmetry not used in FoFCou.
 FMM levels:  10  Number of levels for PrismC:   7
 New state      2 was old state      7
 New state      3 was old state     11
 New state      4 was old state      2
 Excitation Energies [eV] at current iteration:
 Root      1 :     3.871018388563904
 Root      2 :     3.949156411881947
 Root      3 :     4.011925581640838
 Root      4 :     4.066253690038596
 Root      5 :     4.317591457807019
 Root      6 :     4.517977709250552
 Root      7 :     4.611689042952118
 Root      8 :     4.653123200962202
 Root      9 :     4.872903563625945
 Root     10 :     5.011464376690026
 Root     11 :     5.048334429102904
 Root     12 :     5.111981905439701
 Root     13 :     5.312661141734570
 Root     14 :     5.462950708031983
 Root     15 :     5.719771874823416
 Root     16 :     5.879055584674425
 Iteration     2 Dimension    32 NMult    16 NNew     16
 CISAX will form    16 AO SS matrices at one time.
 NMat=    16 NSing=     0 JSym2X= 0.
 Root      1 not converged, maximum delta is    0.096241328145908
 Root      2 not converged, maximum delta is    0.262653486244668
 New state      3 was old state      6
 Root      3 not converged, maximum delta is    0.292616929201350
 New state      4 was old state      3
 Root      4 not converged, maximum delta is    0.131808439866807
 Excitation Energies [eV] at current iteration:
 Root      1 :     3.628028462230171   Change is   -0.242989926333734
 Root      2 :     3.732485509094842   Change is   -0.216670902787105
 Root      3 :     3.741816372085507   Change is   -0.776161337165044
 Root      4 :     3.752408290496082   Change is   -0.259517291144756
 Root      5 :     3.872286328337368   Change is   -0.193967361701228
 Root      6 :     4.059142602640803   Change is   -0.258448855166216
 Root      7 :     4.318998606955152   Change is   -0.292690435996967
 Root      8 :     4.349263526258934   Change is   -0.303859674703268
 Root      9 :     4.572887245439503   Change is   -0.300016318186442
 Root     10 :     4.696897790517874   Change is   -0.314566586172152
 Root     11 :     4.867889325315844   Change is   -0.180445103787060
 Root     12 :     5.021362282460354   Change is   -0.090619622979348
 Root     13 :     5.166302658909450   Change is   -0.146358482825120
 Root     14 :     5.325553121421421   Change is   -0.137397586610563
 Root     15 :     5.537899730157696   Change is   -0.181872144665721
 Root     16 :     5.588845249000843
 Iteration     3 Dimension    36 NMult    32 NNew      4
 CISAX will form     4 AO SS matrices at one time.
 NMat=     4 NSing=     0 JSym2X= 0.
 Root      1 not converged, maximum delta is    0.095305607983410
 New state      2 was old state      3
 Root      2 not converged, maximum delta is    0.280780404246537
 New state      3 was old state      2
 Root      3 not converged, maximum delta is    0.348005550101680
 Root      4 not converged, maximum delta is    0.107723960959505
 Excitation Energies [eV] at current iteration:
 Root      1 :     3.539840780740204   Change is   -0.088187681489967
 Root      2 :     3.624143763567819   Change is   -0.117672608517689
 Root      3 :     3.715253347831436   Change is   -0.017232161263406
 Root      4 :     3.728800417920327   Change is   -0.023607872575755
 Iteration     4 Dimension    40 NMult    36 NNew      4
 CISAX will form     4 AO SS matrices at one time.
 NMat=     4 NSing=     0 JSym2X= 0.
 Root      1 not converged, maximum delta is    0.026832916893556
 Root      2 not converged, maximum delta is    0.043961091085967
 Root      3 not converged, maximum delta is    0.014856303869082
 Root      4 not converged, maximum delta is    0.016382776734995
 Excitation Energies [eV] at current iteration:
 Root      1 :     3.521301321591959   Change is   -0.018539459148245
 Root      2 :     3.596255343662191   Change is   -0.027888419905628
 Root      3 :     3.708318490773633   Change is   -0.006934857057803
 Root      4 :     3.722069985262931   Change is   -0.006730432657396
 Iteration     5 Dimension    44 NMult    40 NNew      4
 CISAX will form     4 AO SS matrices at one time.
 NMat=     4 NSing=     0 JSym2X= 0.
 Root      1 not converged, maximum delta is    0.012452167523735
 Root      2 not converged, maximum delta is    0.038997128407605
 Root      3 not converged, maximum delta is    0.017753674079812
 Root      4 not converged, maximum delta is    0.018546463902143
 Excitation Energies [eV] at current iteration:
 Root      1 :     3.517016279035859   Change is   -0.004285042556100
 Root      2 :     3.580647692406823   Change is   -0.015607651255368
 Root      3 :     3.705794438826982   Change is   -0.002524051946651
 Root      4 :     3.719357673353100   Change is   -0.002712311909831
[...]
 Alpha  occ. eigenvalues --   -0.83505  -0.82604  -0.82181  -0.80417  -0.79052
 Alpha  occ. eigenvalues --   -0.78694  -0.77536  -0.75786  -0.72668  -0.71837
 Alpha  occ. eigenvalues --   -0.70483  -0.69712  -0.69516  -0.67430  -0.67170
 Alpha  occ. eigenvalues --   -0.66574  -0.66253  -0.64325  -0.64025  -0.63815
 Alpha  occ. eigenvalues --   -0.61978  -0.60649  -0.59131  -0.58773  -0.58150
 Alpha  occ. eigenvalues --   -0.57979  -0.57064  -0.56670  -0.56013  -0.54947
 Alpha  occ. eigenvalues --   -0.54117  -0.52923  -0.52538  -0.52332  -0.51826
 Alpha  occ. eigenvalues --   -0.51717  -0.51342  -0.50910  -0.50773  -0.50633
 Alpha  occ. eigenvalues --   -0.50554  -0.49866  -0.49686  -0.49249  -0.49120
 Alpha  occ. eigenvalues --   -0.48261  -0.47860  -0.47559  -0.47389  -0.46844
 Alpha  occ. eigenvalues --   -0.46110  -0.45196  -0.45066  -0.44441  -0.42715
 Alpha  occ. eigenvalues --   -0.42593  -0.42505  -0.42258  -0.42047  -0.41736
 Alpha  occ. eigenvalues --   -0.41229  -0.40497  -0.39977  -0.39810  -0.39561
 Alpha  occ. eigenvalues --   -0.39405  -0.38843  -0.38797  -0.38239  -0.36692
 Alpha  occ. eigenvalues --   -0.35298  -0.35090  -0.34381  -0.33664  -0.33416
 Alpha  occ. eigenvalues --   -0.33155  -0.32500  -0.31534  -0.30940  -0.27079
 Alpha  occ. eigenvalues --   -0.26369  -0.25818  -0.25072
 Alpha virt. eigenvalues --   -0.00962   0.00956   0.01480   0.02410   0.02738
 Alpha virt. eigenvalues --    0.03298   0.05528   0.06839   0.08343   0.08646
 Alpha virt. eigenvalues --    0.09726   0.10088   0.11653   0.14354   0.14856
 Alpha virt. eigenvalues --    0.15285   0.16531   0.16871   0.17264   0.17454
 Alpha virt. eigenvalues --    0.17807   0.18883   0.19145   0.19468   0.19942
 Alpha virt. eigenvalues --    0.20401   0.21023   0.21074   0.21342   0.21913
 Alpha virt. eigenvalues --    0.22287   0.22599   0.22808   0.23153   0.23548
 Alpha virt. eigenvalues --    0.23591   0.24059   0.25017   0.25283   0.25353
 Alpha virt. eigenvalues --    0.25834   0.26120   0.26379   0.26426   0.27325
 Alpha virt. eigenvalues --    0.27656   0.27856   0.28098   0.28671   0.29898
 Alpha virt. eigenvalues --    0.31240   0.31463   0.31928   0.32270   0.32545
 Alpha virt. eigenvalues --    0.32822   0.33664   0.33842   0.34565   0.34742
 Alpha virt. eigenvalues --    0.35084   0.35343   0.36211   0.36627   0.37162
 Alpha virt. eigenvalues --    0.38698   0.39413   0.39905   0.40384   0.40864
 Alpha virt. eigenvalues --    0.41448   0.41767   0.42254   0.43296   0.43563
 Alpha virt. eigenvalues --    0.44592   0.45349   0.46210   0.47288   0.48419
 Alpha virt. eigenvalues --    0.49181   0.49496   0.50096   0.51923   0.52025
 Alpha virt. eigenvalues --    0.53677   0.53919   0.55167   0.56016   0.56822
 Alpha virt. eigenvalues --    0.57429   0.57604   0.57924   0.58196   0.58440
 Alpha virt. eigenvalues --    0.58964   0.59596   0.59837   0.60183   0.60270
 Alpha virt. eigenvalues --    0.60769   0.60875   0.61166   0.61510   0.61598
 Alpha virt. eigenvalues --    0.62113   0.62373   0.62714   0.62849   0.63645
 Alpha virt. eigenvalues --    0.63773   0.63884   0.64098   0.64411   0.64634
 Alpha virt. eigenvalues --    0.64954   0.65436   0.65622   0.65744   0.66131
 Alpha virt. eigenvalues --    0.66140   0.66451   0.66542   0.66750   0.67012
 Alpha virt. eigenvalues --    0.67209   0.67571   0.67789   0.67905   0.68021
 Alpha virt. eigenvalues --    0.68272   0.68413   0.68602   0.68986   0.69335
 Alpha virt. eigenvalues --    0.69681   0.69767   0.70350   0.70738   0.71056
 Alpha virt. eigenvalues --    0.71788   0.72007   0.72299   0.72812   0.73510
 Alpha virt. eigenvalues --    0.74621   0.75820   0.76711   0.76974   0.77544
 Alpha virt. eigenvalues --    0.77963   0.78235   0.79152   0.80094   0.80458
 Alpha virt. eigenvalues --    0.82084   0.83076   0.83805   0.84518   0.84805
 Alpha virt. eigenvalues --    0.85799   0.86270   0.86522   0.86831   0.87019
 Alpha virt. eigenvalues --    0.87390   0.87636   0.88026   0.88178   0.88623
 Alpha virt. eigenvalues --    0.89286   0.89332   0.89730   0.90117   0.90352
 Alpha virt. eigenvalues --    0.90634   0.90912   0.91307   0.91593   0.92004
 Alpha virt. eigenvalues --    0.92276   0.92508   0.92840   0.93090   0.93879
 Alpha virt. eigenvalues --    0.94437   0.94770   0.95145   0.95378   0.95507
 Alpha virt. eigenvalues --    0.96096   0.96587   0.97094   0.97272   0.98060
 Alpha virt. eigenvalues --    0.98439   0.98751   0.99224   1.00042   1.01019
 Alpha virt. eigenvalues --    1.01357   1.02085   1.02404   1.03557   1.03836
 Alpha virt. eigenvalues --    1.04558   1.05369   1.05483   1.05825   1.06113
 Alpha virt. eigenvalues --    1.06350   1.06829   1.07155   1.07999   1.08720
 Alpha virt. eigenvalues --    1.09787   1.10016   1.10953   1.11048   1.12236
 Alpha virt. eigenvalues --    1.13192   1.13403   1.13875   1.14386   1.14606
 Alpha virt. eigenvalues --    1.15932   1.16663   1.18110   1.18412   1.18829
 Alpha virt. eigenvalues --    1.19695   1.20376   1.21380   1.21715   1.22051
 Alpha virt. eigenvalues --    1.22955   1.23340   1.24500   1.24730   1.24904
 Alpha virt. eigenvalues --    1.25271   1.26067   1.26457   1.26698   1.27392
 Alpha virt. eigenvalues --    1.27721   1.28561   1.28873   1.29797   1.30193
 Alpha virt. eigenvalues --    1.31720   1.32781   1.33190   1.33935   1.34434
 Alpha virt. eigenvalues --    1.34708   1.36017   1.36386   1.37381   1.38071
 Alpha virt. eigenvalues --    1.38467   1.38885   1.39922   1.41278   1.41666
 Alpha virt. eigenvalues --    1.41921   1.42713   1.42924   1.43078   1.43522
 Alpha virt. eigenvalues --    1.43628   1.43946   1.44701   1.44838   1.45148
 Alpha virt. eigenvalues --    1.45739   1.46131   1.46680   1.46887   1.47233
 Alpha virt. eigenvalues --    1.47267   1.47733   1.47926   1.48060   1.48133
 Alpha virt. eigenvalues --    1.48414   1.48817   1.49555   1.49953   1.50597
 Alpha virt. eigenvalues --    1.50913   1.52327   1.53723   1.55554   1.58622
 Alpha virt. eigenvalues --    1.60720   1.62471   1.65144   1.65359   1.66139
 Alpha virt. eigenvalues --    1.66843   1.67313   1.67596   1.70275   1.70672
 Alpha virt. eigenvalues --    1.72579   1.76341   1.77484   1.79770   1.80340
 Alpha virt. eigenvalues --    1.80927   1.81746   1.81762   1.82201   1.82521
 Alpha virt. eigenvalues --    1.83283   1.83533   1.83900   1.84768   1.85664
 Alpha virt. eigenvalues --    1.86081   1.86550   1.86664   1.87115   1.87186
 Alpha virt. eigenvalues --    1.87810   1.88731   1.88962   1.90050   1.90566
 Alpha virt. eigenvalues --    1.91660   1.91870   1.92231   1.93438   1.93929
 Alpha virt. eigenvalues --    1.94333   1.95268   1.95603   1.95934   1.96334
 Alpha virt. eigenvalues --    1.97018   1.97492   1.97751   1.98392   1.98536
 Alpha virt. eigenvalues --    1.99323   1.99394   1.99581   1.99916   2.00459
 Alpha virt. eigenvalues --    2.00773   2.01363   2.01501   2.02528   2.02723
 Alpha virt. eigenvalues --    2.02931   2.03086   2.03543   2.03649   2.04118
 Alpha virt. eigenvalues --    2.04413   2.04798   2.05110   2.05829   2.05924
 Alpha virt. eigenvalues --    2.06578   2.07154   2.07394   2.07777   2.08202
 Alpha virt. eigenvalues --    2.08632   2.09346   2.09924   2.10090   2.10975
 Alpha virt. eigenvalues --    2.11272   2.11945   2.12093   2.13950   2.15301
 Alpha virt. eigenvalues --    2.15473   2.15616   2.16440   2.16998   2.18902
 Alpha virt. eigenvalues --    2.19292   2.19894   2.21145   2.23187   2.23342
 Alpha virt. eigenvalues --    2.24221   2.26641   2.27824   2.28512   2.28758
 Alpha virt. eigenvalues --    2.29007   2.30398   2.30488   2.30907   2.32402
 Alpha virt. eigenvalues --    2.33008   2.33267   2.34240   2.35581   2.35747
 Alpha virt. eigenvalues --    2.36215   2.36622   2.38202   2.38692   2.39564
 Alpha virt. eigenvalues --    2.40176   2.40685   2.41099   2.41315   2.41466
 Alpha virt. eigenvalues --    2.42422   2.42708   2.42741   2.43679   2.44717
 Alpha virt. eigenvalues --    2.44793   2.45270   2.45533   2.45612   2.45701
 Alpha virt. eigenvalues --    2.46057   2.46636   2.46830   2.47070   2.48430
 Alpha virt. eigenvalues --    2.48677   2.49152   2.50312   2.50788   2.51060
 Alpha virt. eigenvalues --    2.51335   2.51699   2.52439   2.52631   2.52893
 Alpha virt. eigenvalues --    2.53512   2.54036   2.54929   2.55879   2.56194
 Alpha virt. eigenvalues --    2.56852   2.56872   2.57425   2.57995   2.58499
 Alpha virt. eigenvalues --    2.59208   2.59456   2.59766   2.60875   2.60980
 Alpha virt. eigenvalues --    2.61516   2.61885   2.62455   2.62951   2.63370
 Alpha virt. eigenvalues --    2.63806   2.64410   2.64612   2.64795   2.65788
 Alpha virt. eigenvalues --    2.66020   2.66474   2.66932   2.68065   2.68560
 Alpha virt. eigenvalues --    2.69191   2.69312   2.69799   2.70827   2.71904
 Alpha virt. eigenvalues --    2.72602   2.72982   2.73561   2.74416   2.75360
 Alpha virt. eigenvalues --    2.76090   2.77664   2.78309   2.78422   2.79017
 Alpha virt. eigenvalues --    2.79800   2.80900   2.81184   2.81658   2.82219
 Alpha virt. eigenvalues --    2.83234   2.83973   2.84994   2.86103   2.88317
 Alpha virt. eigenvalues --    2.88560   2.89371   2.91306   2.92305   2.95026
 Alpha virt. eigenvalues --    2.96188   2.96418   2.98074   2.98380   2.99320
 Alpha virt. eigenvalues --    2.99858   3.00938   3.02214   3.03217   3.03555
 Alpha virt. eigenvalues --    3.06887   3.08988   3.10666   3.15129   3.17575
 Alpha virt. eigenvalues --    3.19069   3.20881   3.23082   3.25032   3.25402
 Alpha virt. eigenvalues --    3.26308   3.28727   3.29118   3.29590   3.30369
 Alpha virt. eigenvalues --    3.31688   3.31887   3.32212   3.32718   3.32971
 Alpha virt. eigenvalues --    3.33427   3.34751   3.37100   3.37911   3.38619
 Alpha virt. eigenvalues --    3.38836   3.42836   3.43767   3.44586   3.44871
 Alpha virt. eigenvalues --    3.45821   3.49616   3.51182   3.52115   3.54323
 Alpha virt. eigenvalues --    3.55110   3.56615   3.58227   3.59414   3.78143
 Alpha virt. eigenvalues --    3.87149   3.89713   3.90198   3.94381   3.96031
 Alpha virt. eigenvalues --    3.97835   4.13707   4.16960   4.18587   4.19329
 Alpha virt. eigenvalues --    4.20612   4.21211   4.21999   4.22546   4.22901
 Alpha virt. eigenvalues --    4.23317   4.24412   4.25963   4.26909   4.27870
 Alpha virt. eigenvalues --    4.28106   4.29281   4.31159   4.32203   4.33326
 Alpha virt. eigenvalues --    4.34772   4.44140   4.47517   4.48043   4.49387
 Alpha virt. eigenvalues --    4.50687   4.51939   4.55682   4.56720   4.57314
 Alpha virt. eigenvalues --    4.60831   4.61703   4.62905   4.63169   4.65731
 Alpha virt. eigenvalues --    4.85540   4.89421   4.92169   4.95544   4.99092
 Alpha virt. eigenvalues --    5.03272
          Condensed to atoms (all electrons):
 Mulliken charges:
               1
     1  C    0.248716
     2  C    0.242828
     3  C   -0.129384
     4  C   -0.213461
     5  C   -0.124489
     6  C   -0.153967
     7  S    1.191007
     8  O   -0.564858
     9  H    0.191474
    10  H    0.184241
    11  H    0.172137
    12  N   -0.744203
    13  C    0.300940
    14  C    0.292358
    15  C   -0.130059
    16  C    0.028014
    17  C   -0.157659
    18  C    0.034926
    19  C   -0.139637
    20  H    0.129774
    21  C   -0.158689
    22  C   -0.145841
    23  H    0.130893
    24  C   -0.161106
    25  C   -0.148447
    26  H    0.135724
    27  H    0.131526
    28  C   -0.151142
    29  H    0.127454
    30  H    0.135108
    31  H    0.126755
    32  H    0.127930
    33  N   -0.741851
    34  C    0.310001
    35  C    0.314713
    36  C   -0.176535
    37  C    0.003635
    38  C   -0.153598
    39  C    0.006608
    40  C   -0.148211
    41  H    0.135873
    42  C   -0.139390
    43  C   -0.142079
    44  H    0.130066
    45  C   -0.138640
    46  C   -0.145521
    47  H    0.133597
    48  H    0.136222
    49  C   -0.142279
    50  H    0.135872
    51  H    0.133587
    52  H    0.129569
    53  H    0.127829
    54  O   -0.564451
    55  C   -0.204511
    56  C   -0.116329
    57  C   -0.109669
    58  C   -0.135057
    59  H    0.179592
    60  C   -0.132162
    61  H    0.174687
    62  C   -0.120378
    63  H    0.151120
    64  H    0.150484
    65  H    0.148338
 Sum of Mulliken charges =  -0.00000
 Mulliken charges with hydrogens summed into heavy atoms:
               1
     1  C    0.248716
     2  C    0.242828
     3  C    0.062090
     4  C   -0.213461
     5  C    0.059752
     6  C    0.018170
     7  S    1.191007
     8  O   -0.564858
    12  N   -0.744203
    13  C    0.300940
    14  C    0.292358
    15  C   -0.000284
    16  C    0.028014
    17  C   -0.026766
    18  C    0.034926
    19  C   -0.003913
    21  C   -0.027162
    22  C   -0.018387
    24  C   -0.025997
    25  C   -0.021692
    28  C   -0.023211
    33  N   -0.741851
    34  C    0.310001
    35  C    0.314713
    36  C   -0.040661
    37  C    0.003635
    38  C   -0.023532
    39  C    0.006608
    40  C   -0.014614
    42  C   -0.003168
    43  C   -0.006207
    45  C   -0.005053
    46  C   -0.015953
    49  C   -0.014450
    54  O   -0.564451
    55  C   -0.204511
    56  C    0.063263
    57  C    0.065018
    58  C    0.016063
    60  C    0.018322
    62  C    0.027960
 Electronic spatial extent (au):  <R**2>=          19715.0838
 Charge=             -0.0000 electrons
 Dipole moment (field-independent basis, Debye):
    X=             -1.1416    Y=              2.6668    Z=              3.9343  Tot=              4.8881
 Quadrupole moment (field-independent basis, Debye-Ang):
   XX=           -225.5524   YY=           -224.2262   ZZ=           -245.1521
   XY=             18.7643   XZ=             24.5407   YZ=             -1.0184
 Traceless Quadrupole moment (field-independent basis, Debye-Ang):
   XX=              6.0911   YY=              7.4174   ZZ=            -13.5085
   XY=             18.7643   XZ=             24.5407   YZ=             -1.0184
 Octapole moment (field-independent basis, Debye-Ang**2):
  XXX=            -74.2874  YYY=             35.9264  ZZZ=             19.4887  XYY=            -34.7296
  XXY=            108.4901  XXZ=            104.1929  XZZ=             21.6333  YZZ=              6.1042
  YYZ=             15.0533  XYZ=            -35.9312
 Hexadecapole moment (field-independent basis, Debye-Ang**3):
 XXXX=         -16134.0510 YYYY=          -6611.6885 ZZZZ=          -3154.3665 XXXY=            567.0025
 XXXZ=            572.6006 YYYX=            117.3603 YYYZ=             78.9196 ZZZX=            165.8884
 ZZZY=             54.5369 XXYY=          -3859.5153 XXZZ=          -3193.6753 YYZZ=          -1684.5907
 XXYZ=            -45.5778 YYXZ=            160.3976 ZZXY=            -30.2522
 N-N= 4.826969908324D+03 E-N=-1.441667178335D+04  KE= 2.027245296911D+03
 No NMR shielding tensors so no spin-rotation constants.
 Leave Link  601 at Wed Aug 14 21:53:02 2024, MaxMem=  2147483648 cpu:               4.7 elap:               0.4
 (Enter /apps/gaussian/g16/l9999.exe)
 Electronic transition elements 
                 1             2             3             4 
      1  -0.204389D+04 -0.204391D+04 -0.204388D+04 -0.204388D+04
      2   0.000000D+00  0.000000D+00  0.000000D+00  0.000000D+00
      3   0.000000D+00  0.000000D+00  0.000000D+00  0.000000D+00
      4   0.000000D+00  0.000000D+00  0.000000D+00  0.000000D+00
      5   0.000000D+00  0.000000D+00  0.000000D+00  0.000000D+00
      6   0.000000D+00  0.000000D+00  0.000000D+00  0.000000D+00
      7   0.000000D+00  0.000000D+00  0.000000D+00  0.000000D+00
      8   0.000000D+00  0.000000D+00  0.000000D+00  0.000000D+00
      9   0.000000D+00  0.000000D+00  0.000000D+00  0.000000D+00
     10   0.000000D+00  0.000000D+00  0.000000D+00  0.000000D+00
     11   0.000000D+00  0.000000D+00  0.000000D+00  0.000000D+00
     12   0.000000D+00  0.000000D+00  0.000000D+00  0.000000D+00
     13   0.000000D+00  0.000000D+00  0.000000D+00  0.000000D+00
     14   0.000000D+00  0.000000D+00  0.000000D+00  0.000000D+00
     15   0.000000D+00  0.000000D+00  0.000000D+00  0.000000D+00
     16   0.000000D+00  0.000000D+00  0.000000D+00  0.000000D+00

 Test job not archived.
 1\1\GINC-PMLP-HPCCLSAP03\FOpt\RwB97XD TDA-FC\6-31G(d,p)\C36H24N2O2S1\W
 ILLIAM1\14-Aug-2024\0\\#p opt wB97XD/6-31G** iop(3/107=0136000000,3/10
 8=0136000000) TDA=(triplets, nstates=4, root=2)\\Tuning input file gen
 erated by xtune with parameters: w01360\\0,1\C,-0.2474084679,-1.332126
 0448,0.3441040598\C,0.3116077034,-0.3555147037,-0.5156492837\C,1.62289
 4839,-0.5117309131,-0.9612389446\C,2.3704822803,-1.611487433,-0.557154
 2586\C,1.8236716876,-2.5982254266,0.2575366764\C,0.5132775111,-2.45239
 08183,0.695930829\S,4.0850215794,-1.7241275444,-1.0703565417\O,4.18534
 59498,-1.1724199921,-2.4213284596\H,2.0391366746,0.2188578356,-1.64577
 15686\H,2.4206047449,-3.4561371047,0.5437954078\H,0.0678653673,-3.1914
 482202,1.3524723251\N,-0.4030618883,0.7934296246,-0.9107189839\C,-1.68
 34797999,0.8236021168,-1.4717350624\C,-0.0509929793,2.0974907938,-0.54
 72958338\C,-2.4264758634,-0.2210908522,-2.0167564523\C,-2.1590125253,2
 .1510365353,-1.4590268105\C,1.1117800198,2.5572558482,0.0719359096\C,-
 1.1163883891,2.9658469918,-0.8705411717\C,-3.691181683,0.0795139675,-2
 .5082479299\H,-2.0439122053,-1.234565907,-2.0449750217\C,-3.4288377934
 ,2.4314474816,-1.9698166449\C,1.1949392383,3.9170964093,0.3545511603\H
 ,1.921901101,1.8843901194,0.3318684198\C,-1.0066796674,4.3271634086,-0
 .5787182826\C,-4.1924286946,1.3900506718,-2.4825666418\H,-4.2993102254
 ,-0.7193978883,-2.918522621\H,-3.8116359172,3.4468364332,-1.9634847278
 \C,0.1508191662,4.7966199025,0.0316874762\H,2.0888148369,4.3018024532,
 0.8348518598\H,-1.81800181,5.0063017246,-0.8199089958\H,-5.1836249162,
 1.5907167831,-2.8747688181\H,0.249111873,5.851857883,0.262878984\N,-1.
 5610850431,-1.2177568547,0.8349606376\C,-2.602177723,-2.1056143499,0.5
 327222523\C,-2.1001447582,-0.0927828862,1.4823878657\C,-2.5730813175,-
 3.3111993544,-0.1121961285\C,-3.8418106831,-1.4952017862,0.9881668152\
 C,-1.4683542382,0.9794083128,2.0390400382\C,-3.5359450856,-0.269437627
 3,1.5465008906\C,-3.8229769649,-3.9798986422,-0.3217923183\H,-1.648369
 6744,-3.7491898649,-0.4694484447\C,-5.0848274397,-2.2056512705,0.77003
 56024\C,-2.2896090599,2.0007597189,2.6295896088\H,-0.3910302314,1.0859
 870113,2.0233303224\C,-4.3354308405,0.7742114642,2.1531536119\C,-5.041
 6210641,-3.4194744914,0.1223264956\H,-3.8272261508,-4.9350305471,-0.83
 4000227\H,-6.0201702727,-1.7770060171,1.1096592649\C,-3.6909720489,1.8
 804536367,2.6693989735\H,-1.8104241486,2.8819979545,3.0390103719\H,-5.
 4144310969,0.6810862656,2.1849147863\H,-5.9625945316,-3.9659691001,-0.
 0539758806\H,-4.2734801821,2.678247341,3.1185961555\O,4.5497123629,-3.
 0742262674,-0.7508441192\C,4.8913910118,-0.5754920986,0.0470176041\C,5
 .0392347684,0.7553159909,-0.3408342005\C,5.321819596,-1.0277655935,1.2
 927448087\C,5.6227425916,1.6541217988,0.5492683258\H,4.7200240352,1.06
 88196529,-1.3284673474\C,5.9060947062,-0.1197979852,2.1724383633\H,5.2
 124908582,-2.0740411308,1.5550345117\C,6.0507737177,1.2176578212,1.803
 2185137\H,5.7496976222,2.6917288339,0.2599730072\H,6.2516651365,-0.457
 2506411,3.1435311395\H,6.5056174012,1.9210655705,2.4927466464\\Version
 =ES64L-G16RevC.01\State=1-A\HF=-2044.0133498\RMSD=5.463e-09\RMSF=2.341
 e-05\Dipole=-0.5055708,1.08868,1.62901\PG=C01 [X(C36H24N2O2S1)]\\@


 IT IS A CAPITAL MISTAKE TO THEORIZE BEFORE ONE HAS
 DATA.  INSENSIBLY ONE BEGINS TO TWIST FACTS TO SUIT
 THEORIES RATHER THAN THEORIES TO SUIT FACTS.

                                         -- SHERLOCK HOLMES
 Job cpu time:       4 days 22 hours 50 minutes 12.7 seconds.
 Elapsed time:       0 days  9 hours 25 minutes 28.6 seconds.
 File lengths (MBytes):  RWF=   2603 Int=      0 D2E=      0 Chk=    126 Scr=      1
 Normal termination of Gaussian 16 at Wed Aug 14 21:53:03 2024.
