 Entering Gaussian System, Link 0=g16
 Initial command:
 /apps/gaussian/g16/l1.exe "/local/Gau-4070404.inp" -scrdir="/local/"
 Entering Link 1 = /apps/gaussian/g16/l1.exe PID=   4070405.
  
 Copyright (c) 1988-2019, Gaussian, Inc.  All Rights Reserved.
  
 This is part of the Gaussian(R) 16 program.  It is based on
 the Gaussian(R) 09 system (copyright 2009, Gaussian, Inc.),
 the Gaussian(R) 03 system (copyright 2003, Gaussian, Inc.),
 the Gaussian(R) 98 system (copyright 1998, Gaussian, Inc.),
 the Gaussian(R) 94 system (copyright 1995, Gaussian, Inc.),
 the Gaussian 92(TM) system (copyright 1992, Gaussian, Inc.),
 the Gaussian 90(TM) system (copyright 1990, Gaussian, Inc.),
 the Gaussian 88(TM) system (copyright 1988, Gaussian, Inc.),
 the Gaussian 86(TM) system (copyright 1986, Carnegie Mellon
 University), and the Gaussian 82(TM) system (copyright 1983,
 Carnegie Mellon University). Gaussian is a federally registered
 trademark of Gaussian, Inc.
  
 This software contains proprietary and confidential information,
 including trade secrets, belonging to Gaussian, Inc.
  
 This software is provided under written license and may be
 used, copied, transmitted, or stored only in accord with that
 written license.
  
 The following legend is applicable only to US Government
 contracts under FAR:
  
                    RESTRICTED RIGHTS LEGEND
  
 Use, reproduction and disclosure by the US Government is
 subject to restrictions as set forth in subparagraphs (a)
 and (c) of the Commercial Computer Software - Restricted
 Rights clause in FAR 52.227-19.
  
 Gaussian, Inc.
 340 Quinnipiac St., Bldg. 40, Wallingford CT 06492
  
  
 ---------------------------------------------------------------
 Warning -- This program may not be used in any manner that
 competes with the business of Gaussian, Inc. or will provide
 assistance to any competitor of Gaussian, Inc.  The licensee
 of this program is prohibited from giving any competitor of
 Gaussian, Inc. access to this program.  By using this program,
 the user acknowledges that Gaussian, Inc. is engaged in the
 business of creating and licensing software in the field of
 computational chemistry and represents and warrants to the
 licensee that it is not a competitor of Gaussian, Inc. and that
 it will not use this program in any manner prohibited above.
 ---------------------------------------------------------------
  

 Cite this work as:
 Gaussian 16, Revision C.01,
 M. J. Frisch, G. W. Trucks, H. B. Schlegel, G. E. Scuseria, 
 M. A. Robb, J. R. Cheeseman, G. Scalmani, V. Barone, 
 G. A. Petersson, H. Nakatsuji, X. Li, M. Caricato, A. V. Marenich, 
 J. Bloino, B. G. Janesko, R. Gomperts, B. Mennucci, H. P. Hratchian, 
 J. V. Ortiz, A. F. Izmaylov, J. L. Sonnenberg, D. Williams-Young, 
 F. Ding, F. Lipparini, F. Egidi, J. Goings, B. Peng, A. Petrone, 
 T. Henderson, D. Ranasinghe, V. G. Zakrzewski, J. Gao, N. Rega, 
 G. Zheng, W. Liang, M. Hada, M. Ehara, K. Toyota, R. Fukuda, 
 J. Hasegawa, M. Ishida, T. Nakajima, Y. Honda, O. Kitao, H. Nakai, 
 T. Vreven, K. Throssell, J. A. Montgomery, Jr., J. E. Peralta, 
 F. Ogliaro, M. J. Bearpark, J. J. Heyd, E. N. Brothers, K. N. Kudin, 
 V. N. Staroverov, T. A. Keith, R. Kobayashi, J. Normand, 
 K. Raghavachari, A. P. Rendell, J. C. Burant, S. S. Iyengar, 
 J. Tomasi, M. Cossi, J. M. Millam, M. Klene, C. Adamo, R. Cammi, 
 J. W. Ochterski, R. L. Martin, K. Morokuma, O. Farkas, 
 J. B. Foresman, and D. J. Fox, Gaussian, Inc., Wallingford CT, 2019.
 
 ******************************************
 Gaussian 16:  ES64L-G16RevC.01  3-Jul-2019
                 2-Nov-2024 
 ******************************************
 %chk=YZ-VIII-197.chk
 %nprocshared=16
 Will use up to   16 processors via shared memory.
 %mem=16GB
 ----------------------------------------------------------------------
 #p opt=Restart wB97XD/6-31G** iop(3/107=0119500000,3/108=0119500000) T
 DA=(triplets, nstates=4, root=2)
 ----------------------------------------------------------------------
 1/18=20,19=15,26=3,35=1/3(2);
 2/9=110/2;
 99//99;
 2/9=110/2;
 3/5=1,6=6,7=101,11=9,25=1,30=1,71=1,74=-58,107=119500000,108=119500000/1,2,3,8;
 4/5=5,16=3,69=1/1;
 5/5=2,38=5/2;
 8/6=1,10=2,107=2,108=4/1;
 9/8=2,15=2,41=4,42=1,48=3,49=4/14;
 10/5=4,28=2/2;
 7/12=6,13=5,14=2/1,2,3,16;
 1/18=20,19=15,26=3/3(-8);
 2/9=110/2;
 6/7=2,8=2,9=2,10=2/1;
 99/9=10/99;
 Leave Link    1 at Sat Nov  2 04:55:58 2024, MaxMem=  2147483648 cpu:               0.6 elap:               0.1
 (Enter /apps/gaussian/g16/l103.exe)

 GradGradGradGradGradGradGradGradGradGradGradGradGradGradGradGradGradGrad
 Berny optimization.
 Restoring state from the checkpoint file "YZ-VIII-197.chk".
 ONIOM results not found on unit 2.
 Title:  Tuning input file generated by xtune with parameters: w01195
 Route:  #p opt wB97XD/6-31G** iop(3/107=0119500000,3/108=0119500000) TDA=(triple
 ts, nstates=4, root=2)
 FncErr=1.00D-07 GrdErr=1.00D-06 EigMax=2.50D+02 EigMin=1.00D-04
 Using GEDIIS/GDIIS optimizer.
 FormGI is forming the generalized inverse of G from B-inverse, IUseBI=4.
 Internal  Forces:  Max     0.000013774 RMS     0.000001612
 Search for a local minimum.
 Step number  20 out of a maximum of  510
 All quantities printed in internal units (Hartrees-Bohrs-Radians)
 RMS Force = .16122D-05 SwitMx=.10000D-02 MixMth= 2
 Mixed Optimization -- En-DIIS/RFO-DIIS
 Swapping is turned off.
 Update second derivatives using D2CorX and points    2    5    4    6    3
                                                      7    8    9   10   11
                                                     12   13   14   15   16
                                                     17   19   20
 DE= -1.14D-07 DEPred=-3.94D-08 R= 2.89D+00
 Trust test= 2.89D+00 RLast= 1.23D-03 DXMaxT set to 7.50D-02
 ITU=  0  0 -1  1  0  1  1 -1  1  1  1  1  1  0  0 -1 -1  1 -1  0
     Eigenvalues ---    0.00423   0.00443   0.00585   0.01133   0.01518
     Eigenvalues ---    0.01656   0.01673   0.01705   0.01742   0.01747
     Eigenvalues ---    0.01763   0.01787   0.01830   0.01853   0.01886
     Eigenvalues ---    0.01888   0.01895   0.01902   0.01913   0.01918
     Eigenvalues ---    0.01938   0.01945   0.01954   0.01963   0.01998
     Eigenvalues ---    0.02014   0.02054   0.02097   0.02100   0.02103
     Eigenvalues ---    0.02105   0.02107   0.02109   0.02113   0.02120
     Eigenvalues ---    0.02126   0.02133   0.02134   0.02134   0.02136
     Eigenvalues ---    0.02139   0.02140   0.02140   0.02141   0.02143
     Eigenvalues ---    0.02146   0.02146   0.02149   0.02155   0.02156
     Eigenvalues ---    0.02162   0.02166   0.02168   0.02170   0.02170
     Eigenvalues ---    0.02172   0.02174   0.02174   0.02175   0.02176
     Eigenvalues ---    0.02176   0.02177   0.02177   0.02178   0.02180
     Eigenvalues ---    0.02182   0.02186   0.02189   0.02191   0.02194
     Eigenvalues ---    0.02196   0.02237   0.02293   0.02344   0.02443
     Eigenvalues ---    0.02864   0.03252   0.04706   0.06591   0.09802
     Eigenvalues ---    0.10536   0.12731   0.14047   0.14613   0.15517
     Eigenvalues ---    0.15953   0.15963   0.15989   0.15993   0.15996
     Eigenvalues ---    0.15998   0.15998   0.15999   0.15999   0.15999
     Eigenvalues ---    0.15999   0.16000   0.16000   0.16000   0.16000
     Eigenvalues ---    0.16000   0.16000   0.16000   0.16001   0.16002
     Eigenvalues ---    0.16006   0.16011   0.16020   0.16046   0.16064
     Eigenvalues ---    0.16107   0.16131   0.16284   0.17149   0.19047
     Eigenvalues ---    0.19404   0.21708   0.21974   0.21987   0.21999
     Eigenvalues ---    0.22000   0.22018   0.22032   0.22037   0.22444
     Eigenvalues ---    0.22595   0.22614   0.22622   0.22651   0.22721
     Eigenvalues ---    0.23122   0.23476   0.23783   0.24228   0.24337
     Eigenvalues ---    0.24437   0.24467   0.24474   0.24632   0.24787
     Eigenvalues ---    0.24877   0.24890   0.24920   0.24947   0.24991
     Eigenvalues ---    0.25013   0.25467   0.25655   0.26440   0.26658
     Eigenvalues ---    0.27614   0.28419   0.29765   0.32677   0.35007
     Eigenvalues ---    0.35388   0.35397   0.35399   0.35400   0.35403
     Eigenvalues ---    0.35403   0.35405   0.35424   0.35426   0.35438
     Eigenvalues ---    0.35443   0.35447   0.35448   0.35450   0.35450
     Eigenvalues ---    0.35453   0.35455   0.35456   0.35463   0.35464
     Eigenvalues ---    0.35471   0.35486   0.35516   0.35534   0.35556
     Eigenvalues ---    0.35575   0.35588   0.35690   0.35757   0.35809
     Eigenvalues ---    0.36014   0.36230   0.36479   0.36845   0.37452
     Eigenvalues ---    0.38097   0.39045   0.39863   0.40208   0.40363
     Eigenvalues ---    0.41013   0.42144   0.42266   0.42296   0.42343
     Eigenvalues ---    0.42524   0.42613   0.42666   0.42710   0.42869
     Eigenvalues ---    0.43106   0.43411   0.43621   0.43636   0.43750
     Eigenvalues ---    0.43989   0.44094   0.44472   0.44516   0.44671
     Eigenvalues ---    0.44701   0.44868   0.45289   0.45382   0.45741
     Eigenvalues ---    0.45840   0.46004   0.46049   0.46087   0.46183
     Eigenvalues ---    0.46311   0.46463   0.46531   0.46568   0.46627
     Eigenvalues ---    0.46653   0.46707   0.46761   0.46816   0.46837
     Eigenvalues ---    0.46920   0.46968   0.47007   0.47041   0.47295
     Eigenvalues ---    0.47401   0.48571   0.50508   0.56652   0.59889
     Eigenvalues ---    0.75636   0.89417   0.90027   1.02391
 En-DIIS/RFO-DIIS/Sim-DIIS IScMMF=       -3 using points:    20   19   18   17   16   15   14   13   12   11
 RFO step:  Lambda=-4.01176769D-09.
 NNeg= 0 NGDIIS=10 SimSw=  2.50D-03 Rises=F DC=  0.00D+00 SmlDif=  1.00D-05
 NRisDI= 0 DoIntr=F SqrtH=F CThrHd= 10.0 CDAdj=  3.0
 RMS Error=  0.2785220187D-04 NUsed=10 OKEnD=F EnDIS=F
 InvSVX:  RCond= 2.69D-09 Info=           0 Equed=N FErr=  3.01D-13 BErr=  1.16D-16
 DIIS inversion failure, remove point  10.
 InvSVX:  RCond= 2.99D-09 Info=           0 Equed=N FErr=  2.46D-13 BErr=  5.28D-17
 DIIS inversion failure, remove point   9.
 InvSVX:  RCond= 4.18D-09 Info=           0 Equed=N FErr=  2.16D-13 BErr=  9.10D-17
 DIIS inversion failure, remove point   8.
 InvSVX:  RCond= 4.76D-09 Info=           0 Equed=N FErr=  1.58D-13 BErr=  9.09D-17
 DIIS inversion failure, remove point   7.
 InvSVX:  RCond= 7.18D-09 Info=           0 Equed=N FErr=  5.37D-14 BErr=  9.77D-17
 DIIS inversion failure, remove point   6.
 InvSVX:  RCond= 2.29D-08 Info=           0 Equed=N FErr=  1.13D-14 BErr=  1.03D-16
 DIIS inversion failure, remove point   5.
 InvSVX:  RCond= 4.78D-08 Info=           0 Equed=N FErr=  5.80D-15 BErr=  6.45D-17
 DIIS inversion failure, remove point   4.
 InvSVX:  RCond= 9.59D-08 Info=           0 Equed=N FErr=  3.10D-15 BErr=  5.80D-17
 DIIS inversion failure, remove point   3.
 InvSVX:  RCond= 1.69D-06 Info=           0 Equed=N FErr=  1.38D-15 BErr=  1.54D-18
 RFO-DIIS uses    2 points instead of   10
 DidBck=F Rises=F RFO-DIIS coefs:    0.91660    0.08340    0.00000    0.00000    0.00000
                  RFO-DIIS coefs:    0.00000    0.00000    0.00000    0.00000    0.00000
 Iteration  1 RMS(Cart)=  0.00030396 RMS(Int)=  0.00000001
 Iteration  2 RMS(Cart)=  0.00000003 RMS(Int)=  0.00000000
 ITry= 1 IFail=0 DXMaxC= 2.34D-03 DCOld= 1.00D+10 DXMaxT= 7.50D-02 DXLimC= 3.00D+00 Rises=F
 Variable       Old X    -DE/DX   Delta X   Delta X   Delta X     New X
                                 (Linear)    (Quad)   (Total)
    R1        2.63714  -0.00000  -0.00000  -0.00000  -0.00000   2.63714
    R2        2.67189   0.00000  -0.00000   0.00000  -0.00000   2.67188
    R3        2.63807  -0.00000  -0.00000   0.00001   0.00001   2.63808
    R4        2.63890   0.00000   0.00000   0.00000   0.00000   2.63890
    R5        2.67360   0.00000  -0.00000   0.00001   0.00001   2.67361
    R6        2.63368   0.00000   0.00000  -0.00000  -0.00000   2.63368
    R7        2.62722   0.00000  -0.00000   0.00001   0.00000   2.62723
    R8        2.04871   0.00000  -0.00000   0.00000   0.00000   2.04871
    R9        2.73160   0.00000   0.00000  -0.00000  -0.00000   2.73160
   R10        2.64198  -0.00000  -0.00000   0.00000   0.00000   2.64198
   R11        2.62599   0.00000  -0.00000   0.00000   0.00000   2.62599
   R12        2.04828  -0.00000  -0.00000  -0.00000  -0.00000   2.04827
   R13        2.64158   0.00000  -0.00000   0.00000   0.00000   2.64158
   R14        2.65489  -0.00000  -0.00000  -0.00000  -0.00000   2.65489
   R15        2.05029  -0.00000   0.00000  -0.00000  -0.00000   2.05029
   R16        2.62679  -0.00000   0.00000  -0.00000  -0.00000   2.62679
   R17        2.05074   0.00000  -0.00000  -0.00000  -0.00000   2.05074
   R18        2.65577  -0.00000  -0.00000  -0.00000  -0.00000   2.65577
   R19        2.05015  -0.00000   0.00000  -0.00000  -0.00000   2.05015
   R20        2.62678   0.00000   0.00000   0.00000   0.00000   2.62678
   R21        2.05067   0.00000  -0.00000  -0.00000  -0.00000   2.05067
   R22        2.04973   0.00000   0.00000   0.00000   0.00000   2.04973
   R23        2.04971   0.00000   0.00000   0.00000   0.00000   2.04971
   R24        2.70498   0.00000   0.00000   0.00001   0.00001   2.70499
   R25        2.71440   0.00001   0.00000   0.00001   0.00001   2.71441
   R26        2.66368   0.00000   0.00000   0.00000   0.00000   2.66368
   R27        2.61932  -0.00000  -0.00000   0.00000   0.00000   2.61932
   R28        2.66906   0.00000   0.00000   0.00000   0.00001   2.66907
   R29        2.69170   0.00000   0.00000  -0.00001  -0.00000   2.69169
   R30        2.04807   0.00000   0.00000  -0.00000   0.00000   2.04807
   R31        2.69291   0.00000   0.00000   0.00000   0.00000   2.69292
   R32        3.28070   0.00000  -0.00001   0.00001   0.00000   3.28070
   R33        2.61350   0.00000  -0.00000   0.00001   0.00001   2.61351
   R34        2.04833   0.00000   0.00000  -0.00000  -0.00000   2.04833
   R35        2.67047   0.00000   0.00000  -0.00000  -0.00000   2.67047
   R36        2.77647  -0.00000   0.00000  -0.00000  -0.00000   2.77647
   R37        2.77635   0.00000   0.00000   0.00000   0.00000   2.77636
   R38        3.40098   0.00000   0.00000  -0.00000   0.00000   3.40098
   R39        2.63198  -0.00000  -0.00000   0.00000  -0.00000   2.63198
   R40        2.63849  -0.00000  -0.00000  -0.00000  -0.00000   2.63849
   R41        2.05041   0.00000   0.00000   0.00000   0.00000   2.05041
   R42        2.63882   0.00000   0.00000  -0.00000  -0.00000   2.63882
   R43        2.04865   0.00000   0.00000   0.00000   0.00000   2.04865
   R44        2.64039   0.00000  -0.00000   0.00000   0.00000   2.64039
   R45        2.63361  -0.00000  -0.00000  -0.00000  -0.00000   2.63361
   R46        2.04906  -0.00000  -0.00000  -0.00000  -0.00000   2.04906
   R47        2.63781   0.00000   0.00000   0.00000   0.00000   2.63782
   R48        2.05104  -0.00000  -0.00000  -0.00000  -0.00000   2.05104
   R49        2.05028   0.00000   0.00000   0.00000   0.00000   2.05028
   R50        2.64653   0.00000  -0.00000   0.00000   0.00000   2.64653
   R51        2.64025   0.00000   0.00000  -0.00000  -0.00000   2.64025
   R52        2.04916   0.00000  -0.00000   0.00000   0.00000   2.04916
   R53        2.63233  -0.00000  -0.00000   0.00000  -0.00000   2.63233
   R54        2.04882  -0.00000  -0.00000   0.00000   0.00000   2.04882
   R55        2.63967   0.00000   0.00000   0.00000   0.00000   2.63967
   R56        2.04726   0.00000   0.00000  -0.00000  -0.00000   2.04726
   R57        2.67303  -0.00000  -0.00000   0.00000   0.00000   2.67303
   R58        2.63695  -0.00000  -0.00000  -0.00000  -0.00000   2.63695
   R59        2.62711   0.00000  -0.00000   0.00000   0.00000   2.62711
   R60        2.74773   0.00000   0.00000  -0.00000   0.00000   2.74773
   R61        2.04942   0.00000  -0.00000   0.00000   0.00000   2.04942
   R62        2.63387  -0.00000  -0.00000  -0.00000  -0.00000   2.63387
   R63        2.67040   0.00000   0.00000  -0.00000  -0.00000   2.67040
   R64        2.63638   0.00000  -0.00000   0.00001   0.00001   2.63639
   R65        2.63238   0.00000  -0.00000   0.00000   0.00000   2.63238
   R66        2.04346  -0.00000   0.00000  -0.00000  -0.00000   2.04346
   R67        2.64426   0.00000  -0.00000   0.00000   0.00000   2.64426
   R68        2.04812   0.00000   0.00000   0.00000   0.00000   2.04812
   R69        2.64185  -0.00000   0.00000  -0.00001  -0.00000   2.64184
   R70        2.04903   0.00000   0.00000   0.00000   0.00000   2.04903
   R71        2.62662   0.00000  -0.00000   0.00001   0.00001   2.62663
   R72        2.04947   0.00000   0.00000   0.00000   0.00000   2.04947
   R73        2.64796  -0.00000  -0.00000  -0.00000  -0.00000   2.64795
   R74        2.63740  -0.00000   0.00000   0.00000   0.00000   2.63740
   R75        2.04930   0.00000  -0.00000   0.00000   0.00000   2.04930
   R76        2.63220  -0.00000  -0.00000   0.00000   0.00000   2.63220
   R77        2.04910  -0.00000   0.00000  -0.00000  -0.00000   2.04910
   R78        2.63862   0.00000   0.00000  -0.00000  -0.00000   2.63862
   R79        2.04726   0.00000  -0.00000   0.00000   0.00000   2.04726
   R80        2.67290  -0.00000  -0.00000  -0.00000  -0.00000   2.67290
   R81        2.63769   0.00001   0.00000   0.00001   0.00001   2.63770
   R82        2.63038   0.00000  -0.00000   0.00000   0.00000   2.63038
   R83        2.74471  -0.00000   0.00000  -0.00000   0.00000   2.74471
   R84        2.04983   0.00000  -0.00000   0.00000   0.00000   2.04983
   R85        2.63437  -0.00000  -0.00000   0.00000   0.00000   2.63437
   R86        2.67102   0.00000  -0.00000   0.00000   0.00000   2.67103
   R87        2.63485   0.00000  -0.00000   0.00000   0.00000   2.63485
   R88        2.63062   0.00000   0.00000   0.00000   0.00000   2.63062
   R89        2.04423  -0.00000  -0.00000  -0.00000  -0.00000   2.04423
   R90        2.64686  -0.00000  -0.00000  -0.00000  -0.00000   2.64686
   R91        2.04866  -0.00000   0.00000  -0.00000  -0.00000   2.04866
   R92        2.63832  -0.00000   0.00000   0.00000   0.00000   2.63832
   R93        2.04929   0.00000  -0.00000   0.00000   0.00000   2.04929
   R94        2.63018  -0.00000  -0.00000  -0.00000  -0.00000   2.63018
   R95        2.04982   0.00000  -0.00000   0.00000   0.00000   2.04982
    A1        2.12405   0.00000   0.00000   0.00000   0.00000   2.12405
    A2        2.25027  -0.00000  -0.00000   0.00000   0.00000   2.25027
    A3        1.90876   0.00000   0.00000  -0.00000  -0.00000   1.90876
    A4        2.12377  -0.00000  -0.00000  -0.00000  -0.00000   2.12377
    A5        2.25007   0.00000  -0.00000   0.00000   0.00000   2.25007
    A6        1.90926  -0.00000   0.00000  -0.00000   0.00000   1.90926
    A7        2.05453  -0.00000   0.00000  -0.00000  -0.00000   2.05453
    A8        2.11416  -0.00000  -0.00000   0.00000   0.00000   2.11416
    A9        2.11449   0.00000  -0.00000  -0.00000  -0.00000   2.11449
   A10        1.86141   0.00000  -0.00000   0.00000   0.00000   1.86141
   A11        2.08600  -0.00000  -0.00000   0.00000  -0.00000   2.08599
   A12        2.33572   0.00000   0.00000  -0.00000  -0.00000   2.33572
   A13        2.05439  -0.00000   0.00000  -0.00000   0.00000   2.05439
   A14        2.11557  -0.00000  -0.00000   0.00000   0.00000   2.11557
   A15        2.11321   0.00000   0.00000  -0.00000  -0.00000   2.11321
   A16        1.86134  -0.00000  -0.00000  -0.00000  -0.00000   1.86134
   A17        2.08600  -0.00000  -0.00000   0.00000   0.00000   2.08601
   A18        2.33581   0.00000   0.00000  -0.00000   0.00000   2.33581
   A19        2.11797  -0.00000  -0.00000  -0.00000  -0.00000   2.11797
   A20        2.07854   0.00000   0.00000   0.00000   0.00000   2.07854
   A21        2.08667  -0.00000   0.00000  -0.00000  -0.00000   2.08667
   A22        2.07844   0.00000   0.00000  -0.00000  -0.00000   2.07844
   A23        2.10106  -0.00000  -0.00000  -0.00000  -0.00000   2.10106
   A24        2.10368   0.00000  -0.00000   0.00000   0.00000   2.10369
   A25        2.11808   0.00000  -0.00000   0.00000   0.00000   2.11808
   A26        2.07843   0.00000   0.00000  -0.00000   0.00000   2.07844
   A27        2.08666  -0.00000  -0.00000  -0.00000  -0.00000   2.08666
   A28        2.07822   0.00000   0.00000   0.00000   0.00000   2.07822
   A29        2.10124  -0.00000  -0.00000  -0.00000  -0.00000   2.10124
   A30        2.10372  -0.00000  -0.00000   0.00000  -0.00000   2.10372
   A31        2.10521   0.00000   0.00000   0.00000   0.00000   2.10521
   A32        2.08636  -0.00000  -0.00000  -0.00000  -0.00000   2.08636
   A33        2.09161   0.00000   0.00000   0.00000   0.00000   2.09161
   A34        2.10579   0.00000   0.00000  -0.00000  -0.00000   2.10579
   A35        2.08602  -0.00000  -0.00000   0.00000  -0.00000   2.08601
   A36        2.09138  -0.00000   0.00000   0.00000   0.00000   2.09138
   A37        2.02731   0.00000  -0.00000   0.00001   0.00000   2.02731
   A38        2.12308  -0.00001   0.00000  -0.00001  -0.00001   2.12307
   A39        2.13246   0.00001   0.00000   0.00001   0.00001   2.13247
   A40        2.13591   0.00000   0.00000  -0.00000  -0.00000   2.13590
   A41        2.09729   0.00000   0.00000   0.00001   0.00001   2.09730
   A42        2.04983  -0.00000  -0.00000  -0.00000  -0.00001   2.04982
   A43        2.10224   0.00000   0.00000  -0.00000  -0.00000   2.10224
   A44        2.08966  -0.00000  -0.00000  -0.00000  -0.00001   2.08965
   A45        2.08850   0.00000   0.00000   0.00000   0.00000   2.08850
   A46        2.06218  -0.00000  -0.00000   0.00001   0.00001   2.06218
   A47        2.08807   0.00000   0.00000   0.00002   0.00003   2.08810
   A48        2.10121   0.00000   0.00000   0.00001   0.00002   2.10122
   A49        2.11093   0.00000   0.00000  -0.00000   0.00000   2.11093
   A50        2.08406  -0.00000  -0.00000  -0.00001  -0.00001   2.08405
   A51        2.08810   0.00000   0.00000   0.00001   0.00001   2.08811
   A52        2.12737  -0.00000   0.00000  -0.00001  -0.00001   2.12736
   A53        2.09826   0.00001   0.00000   0.00002   0.00002   2.09827
   A54        2.05756  -0.00000  -0.00000  -0.00001  -0.00001   2.05755
   A55        1.88389   0.00000  -0.00000   0.00000   0.00000   1.88389
   A56        2.19949  -0.00000  -0.00000  -0.00001  -0.00001   2.19949
   A57        2.19976   0.00000   0.00000   0.00001   0.00001   2.19977
   A58        1.88671  -0.00000  -0.00000   0.00001   0.00000   1.88672
   A59        1.88403  -0.00000  -0.00000  -0.00000  -0.00001   1.88402
   A60        1.83372   0.00001   0.00000   0.00004   0.00004   1.83376
   A61        2.12273   0.00000  -0.00000  -0.00000  -0.00001   2.12272
   A62        1.85220  -0.00000   0.00000  -0.00002  -0.00002   1.85218
   A63        1.86447  -0.00000   0.00000  -0.00001  -0.00001   1.86446
   A64        2.09888  -0.00000  -0.00000   0.00000  -0.00000   2.09888
   A65        2.08897  -0.00000   0.00000  -0.00000  -0.00000   2.08897
   A66        2.09531   0.00000   0.00000   0.00000   0.00000   2.09531
   A67        2.08255   0.00000   0.00000  -0.00000  -0.00000   2.08255
   A68        2.11391  -0.00000  -0.00000   0.00000   0.00000   2.11391
   A69        2.08654  -0.00000  -0.00000   0.00000  -0.00000   2.08654
   A70        2.08693   0.00000   0.00000   0.00001   0.00001   2.08693
   A71        2.08257  -0.00000   0.00000  -0.00000  -0.00000   2.08257
   A72        2.10982  -0.00000  -0.00000   0.00000   0.00000   2.10982
   A73        2.08224  -0.00000   0.00000  -0.00000  -0.00000   2.08224
   A74        2.08505  -0.00000  -0.00000   0.00000   0.00000   2.08505
   A75        2.11546   0.00000   0.00000  -0.00000   0.00000   2.11546
   A76        2.09829   0.00000   0.00000  -0.00000  -0.00000   2.09829
   A77        2.08946  -0.00000  -0.00000   0.00000  -0.00000   2.08946
   A78        2.09533  -0.00000   0.00000   0.00000   0.00000   2.09533
   A79        2.09454   0.00000  -0.00000   0.00000   0.00000   2.09454
   A80        2.09406   0.00000  -0.00000  -0.00000  -0.00000   2.09406
   A81        2.09452  -0.00000   0.00000  -0.00000  -0.00000   2.09452
   A82        2.11083   0.00000   0.00000   0.00000   0.00000   2.11084
   A83        2.08591  -0.00000  -0.00000  -0.00000  -0.00000   2.08591
   A84        2.08639  -0.00000  -0.00000  -0.00000  -0.00000   2.08638
   A85        2.11669  -0.00000  -0.00000  -0.00000  -0.00000   2.11669
   A86        2.08782   0.00000   0.00000  -0.00000  -0.00000   2.08782
   A87        2.07864   0.00000   0.00000   0.00000   0.00000   2.07865
   A88        2.04710  -0.00000  -0.00000   0.00000   0.00000   2.04710
   A89        2.11550   0.00001   0.00001   0.00003   0.00004   2.11553
   A90        2.12059  -0.00001  -0.00001  -0.00003  -0.00004   2.12055
   A91        2.13125   0.00000   0.00000   0.00000   0.00000   2.13125
   A92        2.24837  -0.00001  -0.00000  -0.00001  -0.00001   2.24836
   A93        1.90199   0.00000   0.00000   0.00001   0.00001   1.90200
   A94        2.08582  -0.00000  -0.00000  -0.00000  -0.00000   2.08582
   A95        1.86184  -0.00000  -0.00000  -0.00000  -0.00000   1.86184
   A96        2.33535   0.00000   0.00000   0.00001   0.00001   2.33536
   A97        2.07421  -0.00000  -0.00000   0.00000   0.00000   2.07421
   A98        2.10259  -0.00000  -0.00000  -0.00000  -0.00000   2.10259
   A99        2.10635   0.00000   0.00000  -0.00000   0.00000   2.10635
   A100       2.13106   0.00000   0.00000  -0.00000  -0.00000   2.13106
   A101       2.24710   0.00000  -0.00000   0.00000   0.00000   2.24710
   A102       1.90302  -0.00000   0.00000  -0.00000   0.00000   1.90302
   A103       2.04885  -0.00000  -0.00000   0.00000   0.00000   2.04885
   A104       2.11892   0.00000   0.00000   0.00000   0.00000   2.11892
   A105       2.11542  -0.00000   0.00000  -0.00000  -0.00000   2.11542
   A106       2.11501   0.00000   0.00000   0.00000   0.00000   2.11501
   A107       2.07713  -0.00000  -0.00000   0.00000   0.00000   2.07713
   A108       2.09105  -0.00000   0.00000  -0.00000  -0.00000   2.09105
   A109       2.11087  -0.00000   0.00000  -0.00000  -0.00000   2.11087
   A110       2.08618  -0.00000  -0.00000  -0.00000  -0.00000   2.08618
   A111       2.08602   0.00000   0.00000   0.00000   0.00000   2.08602
   A112       2.07303  -0.00000  -0.00000   0.00000   0.00000   2.07303
   A113       2.10275   0.00000   0.00000   0.00000   0.00000   2.10275
   A114       2.10739  -0.00000   0.00000  -0.00000  -0.00000   2.10739
   A115       1.86230   0.00000  -0.00000   0.00000   0.00000   1.86230
   A116       2.33459  -0.00000   0.00000  -0.00000  -0.00000   2.33459
   A117       2.08595  -0.00000  -0.00000   0.00000  -0.00000   2.08595
   A118       2.16854  -0.00001  -0.00000  -0.00002  -0.00002   2.16852
   A119       2.21861   0.00001   0.00000   0.00002   0.00003   2.21864
   A120       1.89532  -0.00000  -0.00000  -0.00000  -0.00000   1.89532
   A121       2.10967   0.00000   0.00000   0.00000   0.00000   2.10967
   A122       2.08579   0.00000   0.00000   0.00000   0.00000   2.08579
   A123       2.08771  -0.00000  -0.00000  -0.00000  -0.00001   2.08770
   A124       2.11713  -0.00000  -0.00000  -0.00000  -0.00000   2.11713
   A125       2.08744  -0.00000  -0.00000  -0.00000  -0.00000   2.08744
   A126       2.07861   0.00000   0.00000   0.00000   0.00001   2.07862
   A127       2.04812   0.00000   0.00000  -0.00000  -0.00000   2.04812
   A128       2.11673   0.00000  -0.00000   0.00003   0.00003   2.11676
   A129       2.11833  -0.00000   0.00000  -0.00003  -0.00003   2.11830
   A130       2.13048   0.00000   0.00000   0.00001   0.00001   2.13048
   A131       2.24949  -0.00000   0.00000  -0.00001  -0.00001   2.24949
   A132       1.90214   0.00000  -0.00000   0.00000   0.00000   1.90214
   A133       2.08546  -0.00000  -0.00000  -0.00000  -0.00001   2.08545
   A134       1.86211   0.00000  -0.00000  -0.00000  -0.00000   1.86211
   A135       2.33550   0.00000   0.00000   0.00001   0.00001   2.33551
   A136       2.07527   0.00000   0.00000  -0.00000   0.00000   2.07527
   A137       2.10292  -0.00000  -0.00000  -0.00000  -0.00001   2.10291
   A138       2.10498   0.00000   0.00000   0.00000   0.00001   2.10499
   A139       2.13017  -0.00000  -0.00000  -0.00000  -0.00000   2.13017
   A140       2.24787   0.00000   0.00000   0.00000   0.00000   2.24788
   A141       1.90363   0.00000  -0.00000   0.00000   0.00000   1.90364
   A142       2.04985   0.00000   0.00000   0.00000   0.00000   2.04985
   A143       2.11829   0.00000  -0.00000   0.00000   0.00000   2.11830
   A144       2.11504  -0.00000   0.00000  -0.00000  -0.00000   2.11503
   A145       2.11564   0.00000  -0.00000   0.00000   0.00000   2.11564
   A146       2.07743  -0.00000   0.00000   0.00000   0.00000   2.07743
   A147       2.09011  -0.00000   0.00000  -0.00000  -0.00000   2.09011
   A148       2.10978  -0.00000   0.00000  -0.00000   0.00000   2.10978
   A149       2.08622   0.00000   0.00000   0.00000   0.00000   2.08623
   A150       2.08709  -0.00000  -0.00000  -0.00000  -0.00000   2.08709
   A151       2.07434   0.00000   0.00000  -0.00000  -0.00000   2.07434
   A152       2.10303  -0.00000  -0.00000   0.00000  -0.00000   2.10303
   A153       2.10581  -0.00000   0.00000   0.00000   0.00000   2.10581
   A154       1.86228   0.00000  -0.00000   0.00000   0.00000   1.86228
   A155       2.33543  -0.00000  -0.00000  -0.00001  -0.00001   2.33542
   A156       2.08522   0.00000  -0.00000   0.00000   0.00000   2.08523
   A157       2.17686  -0.00000  -0.00000  -0.00002  -0.00002   2.17684
   A158       2.21140   0.00001   0.00000   0.00002   0.00002   2.21142
   A159       1.89428  -0.00000   0.00000  -0.00001  -0.00000   1.89428
    D1        0.01864  -0.00000  -0.00000   0.00000   0.00000   0.01864
    D2       -3.12285  -0.00000  -0.00001   0.00000  -0.00001  -3.12286
    D3       -3.14021   0.00000   0.00001  -0.00001   0.00000  -3.14021
    D4        0.00149  -0.00000   0.00000  -0.00001  -0.00001   0.00148
    D5        3.11334   0.00000   0.00000   0.00001   0.00001   3.11335
    D6       -0.01802   0.00000   0.00001   0.00000   0.00001  -0.01802
    D7       -0.01403   0.00000  -0.00001   0.00002   0.00001  -0.01401
    D8        3.13780   0.00000  -0.00000   0.00001   0.00000   3.13780
    D9       -3.11760  -0.00000  -0.00000  -0.00002  -0.00003  -3.11763
   D10        0.03397  -0.00000  -0.00001   0.00004   0.00003   0.03400
   D11        0.00842  -0.00000   0.00001  -0.00003  -0.00002   0.00840
   D12       -3.12319   0.00000   0.00000   0.00003   0.00003  -3.12315
   D13        0.01540   0.00000  -0.00000   0.00002   0.00002   0.01542
   D14       -3.13146   0.00000   0.00001   0.00003   0.00003  -3.13142
   D15       -3.14114   0.00000  -0.00000   0.00002   0.00001  -3.14113
   D16       -0.00482   0.00000   0.00000   0.00002   0.00003  -0.00479
   D17        3.11993  -0.00000  -0.00000  -0.00002  -0.00002   3.11991
   D18       -0.01465  -0.00000  -0.00000  -0.00002  -0.00002  -0.01467
   D19       -0.00933  -0.00000   0.00000  -0.00002  -0.00002  -0.00935
   D20        3.13928  -0.00000   0.00000  -0.00002  -0.00002   3.13926
   D21       -3.12733   0.00000  -0.00000   0.00003   0.00003  -3.12730
   D22        0.00427  -0.00000   0.00000  -0.00003  -0.00003   0.00425
   D23        0.00077   0.00000  -0.00000   0.00003   0.00003   0.00079
   D24        3.13238  -0.00000  -0.00000  -0.00003  -0.00003   3.13235
   D25       -0.00604   0.00000   0.00000  -0.00001  -0.00001  -0.00604
   D26        3.13371  -0.00000  -0.00000  -0.00000  -0.00001   3.13371
   D27        3.13545   0.00000   0.00001  -0.00000   0.00000   3.13546
   D28       -0.00798   0.00000   0.00000  -0.00000   0.00000  -0.00798
   D29        0.01413   0.00000   0.00000   0.00000   0.00000   0.01413
   D30       -3.13592  -0.00000   0.00000  -0.00000   0.00000  -3.13592
   D31       -3.13981   0.00000   0.00000   0.00001   0.00001  -3.13980
   D32       -0.00668   0.00000   0.00000   0.00001   0.00001  -0.00666
   D33        0.00423  -0.00000  -0.00000  -0.00000  -0.00001   0.00423
   D34       -3.13982   0.00000  -0.00000   0.00001   0.00001  -3.13981
   D35       -3.12377  -0.00000  -0.00000  -0.00001  -0.00002  -3.12378
   D36        0.01537  -0.00000  -0.00000  -0.00000  -0.00000   0.01537
   D37       -0.00523   0.00000   0.00000  -0.00000  -0.00000  -0.00523
   D38        3.13181  -0.00000   0.00001  -0.00000   0.00000   3.13181
   D39       -3.14157  -0.00000  -0.00000  -0.00001  -0.00001  -3.14158
   D40       -0.00452  -0.00000  -0.00000  -0.00001  -0.00001  -0.00453
   D41        0.00326   0.00000   0.00000   0.00000   0.00001   0.00327
   D42       -3.13919   0.00000  -0.00000   0.00000   0.00000  -3.13919
   D43       -3.12902   0.00000   0.00000   0.00001   0.00001  -3.12901
   D44        0.01172   0.00000  -0.00000   0.00001   0.00000   0.01172
   D45       -0.00727   0.00000   0.00000   0.00000   0.00001  -0.00726
   D46        3.13756  -0.00000  -0.00000   0.00000  -0.00000   3.13755
   D47        3.13618   0.00000   0.00001   0.00000   0.00001   3.13618
   D48       -0.00219  -0.00000   0.00000  -0.00000  -0.00000  -0.00219
   D49        0.00806  -0.00000   0.00000  -0.00000   0.00000   0.00806
   D50       -3.13677   0.00000   0.00000   0.00000   0.00001  -3.13677
   D51       -3.13107  -0.00000  -0.00000  -0.00001  -0.00001  -3.13108
   D52        0.00728  -0.00000   0.00000  -0.00001  -0.00001   0.00728
   D53       -0.00576  -0.00000   0.00000  -0.00001  -0.00001  -0.00578
   D54        3.13634  -0.00000   0.00000  -0.00000  -0.00000   3.13634
   D55        3.14040  -0.00000  -0.00000  -0.00001  -0.00002   3.14038
   D56       -0.00069  -0.00000  -0.00000  -0.00000  -0.00000  -0.00069
   D57        0.00667   0.00000  -0.00000   0.00001   0.00001   0.00668
   D58       -3.13544  -0.00000  -0.00000   0.00000  -0.00000  -3.13544
   D59       -3.13407   0.00000   0.00000   0.00001   0.00001  -3.13405
   D60        0.00702   0.00000  -0.00000   0.00000   0.00000   0.00702
   D61        0.00433  -0.00000   0.00001   0.00000   0.00001   0.00434
   D62       -3.11770  -0.00000  -0.00000  -0.00001  -0.00001  -3.11771
   D63       -3.10999  -0.00000   0.00001  -0.00007  -0.00006  -3.11006
   D64        0.05116  -0.00000  -0.00000  -0.00008  -0.00009   0.05108
   D65        0.00335   0.00000  -0.00001  -0.00002  -0.00002   0.00333
   D66       -3.13925  -0.00000  -0.00001  -0.00005  -0.00005  -3.13931
   D67        3.11752   0.00000  -0.00001   0.00006   0.00005   3.11757
   D68       -0.02509  -0.00000  -0.00001   0.00003   0.00002  -0.02507
   D69        1.04234  -0.00000  -0.00000   0.00001   0.00001   1.04235
   D70       -2.08751  -0.00000  -0.00001   0.00008   0.00007  -2.08743
   D71       -2.07033  -0.00000  -0.00000  -0.00007  -0.00007  -2.07040
   D72        1.08300  -0.00000  -0.00001   0.00000  -0.00000   1.08300
   D73       -0.02333   0.00000  -0.00000   0.00001   0.00000  -0.02333
   D74       -3.08445   0.00000  -0.00001   0.00003   0.00002  -3.08443
   D75        3.09920   0.00000   0.00001   0.00002   0.00003   3.09923
   D76        0.03809   0.00000   0.00000   0.00004   0.00004   0.03813
   D77       -2.16591  -0.00000  -0.00002   0.00005   0.00003  -2.16588
   D78        0.93069  -0.00000  -0.00001   0.00002   0.00001   0.93070
   D79        0.99430  -0.00000  -0.00003   0.00004   0.00001   0.99431
   D80       -2.19228  -0.00000  -0.00002   0.00001  -0.00001  -2.19229
   D81        0.03377   0.00000   0.00000  -0.00001  -0.00001   0.03377
   D82        2.90858   0.00000   0.00001   0.00019   0.00020   2.90878
   D83        3.09494   0.00000   0.00001  -0.00003  -0.00002   3.09492
   D84       -0.31343   0.00000   0.00002   0.00016   0.00018  -0.31325
   D85       -0.02639  -0.00000   0.00000  -0.00001  -0.00001  -0.02640
   D86        3.10025  -0.00000  -0.00000  -0.00001  -0.00001   3.10024
   D87       -2.89912  -0.00000  -0.00001  -0.00020  -0.00021  -2.89934
   D88        0.22752  -0.00000  -0.00001  -0.00020  -0.00022   0.22730
   D89        0.61979   0.00000  -0.00002  -0.00002  -0.00005   0.61975
   D90        2.94617  -0.00000  -0.00003  -0.00003  -0.00006   2.94611
   D91       -1.35221   0.00000  -0.00003  -0.00002  -0.00005  -1.35226
   D92       -2.79463   0.00000  -0.00001   0.00017   0.00016  -2.79447
   D93       -0.46825  -0.00000  -0.00002   0.00017   0.00015  -0.46810
   D94        1.51655   0.00000  -0.00002   0.00017   0.00016   1.51670
   D95        0.00810   0.00000   0.00000   0.00002   0.00002   0.00813
   D96       -3.13250   0.00000   0.00000   0.00005   0.00005  -3.13245
   D97       -3.11851   0.00000   0.00000   0.00002   0.00002  -3.11848
   D98        0.02408   0.00000   0.00000   0.00005   0.00006   0.02413
   D99       -2.13133  -0.00000  -0.00002  -0.00000  -0.00002  -2.13135
   D100       0.96720  -0.00000  -0.00001  -0.00007  -0.00009   0.96712
   D101       1.00929  -0.00000  -0.00002  -0.00003  -0.00005   1.00924
   D102      -2.17536  -0.00000  -0.00001  -0.00010  -0.00012  -2.17548
   D103      -1.50573  -0.00000   0.00000  -0.00006  -0.00006  -1.50579
   D104       1.54234   0.00000   0.00000   0.00001   0.00001   1.54235
   D105       2.78122  -0.00000   0.00000  -0.00008  -0.00008   2.78115
   D106      -0.45390  -0.00000   0.00000  -0.00000   0.00000  -0.45390
   D107       0.49276   0.00000  -0.00000  -0.00005  -0.00006   0.49270
   D108      -2.74237   0.00000   0.00000   0.00002   0.00002  -2.74234
   D109      -0.00363   0.00000  -0.00000   0.00001   0.00000  -0.00363
   D110      -3.12449   0.00000   0.00000   0.00001   0.00001  -3.12447
   D111       3.13081  -0.00000  -0.00000  -0.00001  -0.00001   3.13081
   D112       0.00996   0.00000  -0.00000   0.00000   0.00000   0.00996
   D113       0.01000  -0.00000   0.00000  -0.00000  -0.00000   0.01000
   D114       3.13987  -0.00000   0.00000  -0.00001  -0.00001   3.13987
   D115      -3.12442   0.00000   0.00000   0.00001   0.00001  -3.12441
   D116       0.00545   0.00000   0.00000   0.00000   0.00001   0.00546
   D117       3.04213   0.00000   0.00000   0.00007   0.00007   3.04220
   D118      -0.00444   0.00000   0.00000  -0.00001  -0.00001  -0.00445
   D119      -0.11987   0.00000   0.00000   0.00006   0.00006  -0.11981
   D120       3.11674  -0.00000  -0.00000  -0.00002  -0.00002   3.11673
   D121      -3.04072  -0.00000  -0.00000  -0.00007  -0.00007  -3.04079
   D122       0.13186  -0.00000  -0.00001  -0.00007  -0.00007   0.13179
   D123       0.00608  -0.00000   0.00000   0.00001   0.00001   0.00609
   D124      -3.10452  -0.00000  -0.00000   0.00001   0.00001  -3.10451
   D125       0.00035  -0.00000  -0.00000  -0.00001  -0.00001   0.00034
   D126      -3.12521   0.00000  -0.00000   0.00000  -0.00000  -3.12522
   D127       3.11039  -0.00000   0.00000  -0.00001  -0.00001   3.11038
   D128      -0.01517   0.00000   0.00000  -0.00000  -0.00000  -0.01517
   D129      -0.00834   0.00000   0.00000   0.00000   0.00000  -0.00833
   D130      -3.13820   0.00000  -0.00000   0.00001   0.00001  -3.13819
   D131       3.11717  -0.00000   0.00000  -0.00000   0.00000   3.11717
   D132      -0.01270   0.00000   0.00000   0.00000   0.00000  -0.01269
   D133      -0.00616   0.00000   0.00000  -0.00001  -0.00000  -0.00616
   D134       3.12688   0.00000   0.00000  -0.00000   0.00000   3.12688
   D135      -3.13645  -0.00000  -0.00000  -0.00000  -0.00001  -3.13646
   D136      -0.00341  -0.00000  -0.00000  -0.00000  -0.00000  -0.00341
   D137       0.01424   0.00000  -0.00000   0.00001   0.00000   0.01424
   D138      -3.11856  -0.00000  -0.00000  -0.00000  -0.00000  -3.11857
   D139      -3.13866   0.00000   0.00000   0.00001   0.00001  -3.13865
   D140       0.01173   0.00000   0.00000  -0.00000  -0.00000   0.01173
   D141      -0.01728  -0.00000   0.00000  -0.00000  -0.00000  -0.01728
   D142       3.12031   0.00000   0.00000   0.00000   0.00000   3.12031
   D143       3.13282  -0.00000   0.00000  -0.00001  -0.00001   3.13281
   D144      -0.01278   0.00000   0.00000  -0.00000   0.00000  -0.01278
   D145       0.03334   0.00000  -0.00001   0.00001   0.00001   0.03335
   D146       3.10785   0.00000  -0.00000   0.00003   0.00002   3.10787
   D147      -3.10423  -0.00000  -0.00001   0.00001  -0.00000  -3.10424
   D148      -0.02973   0.00000  -0.00001   0.00002   0.00001  -0.02972
   D149      -0.02587   0.00000   0.00001  -0.00001  -0.00001  -0.02587
   D150       3.09888   0.00000   0.00001  -0.00001  -0.00000   3.09888
   D151      -3.11220   0.00000   0.00000  -0.00002  -0.00002  -3.11222
   D152       0.01254   0.00000   0.00001  -0.00002  -0.00001   0.01253
   D153       0.00010  -0.00000  -0.00001  -0.00001  -0.00002   0.00008
   D154      -3.10365  -0.00000  -0.00001   0.00001   0.00000  -3.10365
   D155       3.08161   0.00000  -0.00000  -0.00000  -0.00001   3.08161
   D156      -0.02214  -0.00000  -0.00001   0.00003   0.00001  -0.02212
   D157       0.00134  -0.00000  -0.00000   0.00000  -0.00000   0.00134
   D158       3.13412   0.00000  -0.00000   0.00001   0.00001   3.13413
   D159      -3.11789  -0.00000  -0.00000  -0.00000  -0.00001  -3.11790
   D160       0.01489   0.00000  -0.00000   0.00000   0.00000   0.01489
   D161       0.00151  -0.00000   0.00000   0.00000   0.00001   0.00152
   D162       3.11365   0.00000  -0.00000   0.00001   0.00000   3.11366
   D163       3.12279   0.00000   0.00000   0.00001   0.00001   3.12280
   D164      -0.04825   0.00000  -0.00000   0.00001   0.00001  -0.04824
   D165       0.06080  -0.00000  -0.00000   0.00001   0.00000   0.06081
   D166      -3.07719  -0.00000  -0.00000  -0.00000  -0.00001  -3.07720
   D167       3.12651   0.00000   0.00001  -0.00001  -0.00000   3.12650
   D168      -0.01149  -0.00000   0.00000  -0.00002  -0.00001  -0.01151
   D169       3.06396   0.00000  -0.00000  -0.00000  -0.00001   3.06396
   D170      -0.05319   0.00000   0.00000  -0.00000  -0.00000  -0.05319
   D171      -0.01504  -0.00000  -0.00001   0.00001   0.00000  -0.01504
   D172      -3.13219  -0.00000  -0.00001   0.00001   0.00000  -3.13219
   D173       0.13036   0.00000   0.00000   0.00002   0.00002   0.13038
   D174      -3.05046  -0.00000   0.00001  -0.00001  -0.00000  -3.05047
   D175      -3.07923   0.00000   0.00001   0.00001   0.00001  -3.07921
   D176       0.02314   0.00000   0.00001  -0.00002  -0.00001   0.02313
   D177      -0.02618  -0.00000   0.00000  -0.00000  -0.00000  -0.02618
   D178       3.11743  -0.00000   0.00000  -0.00000  -0.00000   3.11743
   D179       3.11183   0.00000   0.00000   0.00001   0.00001   3.11184
   D180      -0.02774   0.00000   0.00000   0.00000   0.00001  -0.02774
   D181      -0.01596  -0.00000   0.00000  -0.00000  -0.00000  -0.01597
   D182      -3.14152  -0.00000   0.00000  -0.00000  -0.00000  -3.14152
   D183       3.12359   0.00000   0.00000  -0.00000  -0.00000   3.12359
   D184      -0.00197   0.00000   0.00000  -0.00000   0.00000  -0.00196
   D185       0.02448   0.00000  -0.00000   0.00001   0.00000   0.02448
   D186      -3.11032  -0.00000   0.00000  -0.00001  -0.00000  -3.11032
   D187      -3.13315   0.00000  -0.00000   0.00000   0.00000  -3.13315
   D188       0.01524  -0.00000   0.00000  -0.00001  -0.00000   0.01524
   D189      -3.10010  -0.00000   0.00001  -0.00001   0.00000  -3.10010
   D190       0.00907  -0.00000   0.00000  -0.00000  -0.00000   0.00907
   D191       0.03468  -0.00000   0.00000   0.00001   0.00001   0.03468
   D192      -3.13934   0.00000  -0.00000   0.00001   0.00001  -3.13933
   D193      -0.00379   0.00000  -0.00000   0.00000   0.00000  -0.00378
   D194       3.13502   0.00000  -0.00000   0.00001   0.00001   3.13503
   D195      -3.13889  -0.00000   0.00000  -0.00000   0.00000  -3.13889
   D196      -0.00008   0.00000   0.00000   0.00001   0.00001  -0.00007
   D197       0.01029   0.00000   0.00000   0.00000   0.00000   0.01030
   D198      -3.12463  -0.00000   0.00000  -0.00000  -0.00000  -3.12463
   D199      -3.13779   0.00000  -0.00000   0.00001   0.00001  -3.13779
   D200       0.01047   0.00000  -0.00000   0.00000   0.00000   0.01047
   D201      -0.01325  -0.00000   0.00000  -0.00001  -0.00001  -0.01326
   D202       3.13023   0.00000  -0.00000   0.00004   0.00004   3.13027
   D203       3.13111  -0.00000   0.00000  -0.00002  -0.00002   3.13109
   D204      -0.00860   0.00000  -0.00000   0.00004   0.00004  -0.00856
   D205       0.02430  -0.00000  -0.00000   0.00001   0.00000   0.02431
   D206       3.11040   0.00000   0.00000   0.00003   0.00003   3.11044
   D207      -3.11918  -0.00000   0.00000  -0.00005  -0.00005  -3.11923
   D208      -0.03308  -0.00000   0.00000  -0.00002  -0.00002  -0.03310
   D209      -0.01825   0.00000   0.00000   0.00000   0.00000  -0.01824
   D210       3.10921   0.00000   0.00000   0.00000   0.00000   3.10921
   D211      -3.11417  -0.00000  -0.00000  -0.00002  -0.00002  -3.11419
   D212       0.01329  -0.00000  -0.00000  -0.00002  -0.00002   0.01327
   D213      -0.01018  -0.00000   0.00000  -0.00004  -0.00004  -0.01022
   D214      -3.11537  -0.00000  -0.00001   0.00002   0.00001  -3.11535
   D215       3.08169   0.00000   0.00000  -0.00002  -0.00002   3.08167
   D216      -0.02350   0.00000  -0.00000   0.00004   0.00004  -0.02346
   D217       0.00042  -0.00000  -0.00000  -0.00001  -0.00001   0.00041
   D218       3.13533  -0.00000  -0.00000  -0.00000  -0.00000   3.13533
   D219      -3.12241  -0.00000  -0.00000  -0.00001  -0.00001  -3.12241
   D220       0.01250  -0.00000  -0.00000  -0.00000  -0.00000   0.01250
   D221       0.00165  -0.00000   0.00001  -0.00001  -0.00000   0.00165
   D222       3.11792  -0.00000   0.00000   0.00001   0.00001   3.11793
   D223       3.12619   0.00000   0.00000  -0.00001  -0.00000   3.12619
   D224      -0.04073   0.00000  -0.00000   0.00001   0.00001  -0.04072
   D225       0.05580   0.00000  -0.00000   0.00000   0.00000   0.05581
   D226      -3.08445   0.00000  -0.00000   0.00002   0.00001  -3.08444
   D227       3.13171  -0.00000   0.00001  -0.00002  -0.00002   3.13169
   D228      -0.00854  -0.00000   0.00000  -0.00001  -0.00001  -0.00855
   D229       3.07141   0.00000  -0.00000   0.00001   0.00001   3.07142
   D230      -0.04919   0.00000   0.00000  -0.00000  -0.00000  -0.04919
   D231      -0.01602   0.00000  -0.00001   0.00003   0.00002  -0.01600
   D232      -3.13663   0.00000  -0.00000   0.00002   0.00002  -3.13661
   D233       0.12081   0.00000  -0.00000   0.00004   0.00004   0.12084
   D234      -3.05811  -0.00000   0.00000  -0.00002  -0.00002  -3.05813
   D235      -3.07969   0.00000   0.00000   0.00002   0.00002  -3.07967
   D236       0.02459  -0.00000   0.00001  -0.00005  -0.00004   0.02455
   D237      -0.02376  -0.00000  -0.00000  -0.00000  -0.00000  -0.02376
   D238       3.11948   0.00000  -0.00000   0.00001   0.00000   3.11948
   D239       3.11650  -0.00000   0.00000  -0.00001  -0.00001   3.11649
   D240      -0.02345  -0.00000   0.00000  -0.00001  -0.00001  -0.02346
   D241      -0.01483  -0.00000   0.00000  -0.00000  -0.00000  -0.01483
   D242       3.14104  -0.00000   0.00000  -0.00000  -0.00000   3.14104
   D243       3.12511  -0.00000   0.00000  -0.00001  -0.00001   3.12510
   D244      -0.00221  -0.00000   0.00000  -0.00001  -0.00001  -0.00221
   D245       0.02222   0.00000  -0.00000   0.00000   0.00000   0.02223
   D246      -3.11373  -0.00000   0.00000  -0.00000  -0.00000  -3.11374
   D247      -3.13365   0.00000   0.00000   0.00000   0.00000  -3.13365
   D248       0.01358  -0.00000   0.00000  -0.00000  -0.00000   0.01357
   D249      -3.10489  -0.00000   0.00000  -0.00002  -0.00001  -3.10491
   D250       0.00884  -0.00000  -0.00000  -0.00000  -0.00000   0.00884
   D251       0.03105  -0.00000   0.00000  -0.00001  -0.00001   0.03105
   D252      -3.13840   0.00000  -0.00000   0.00001   0.00000  -3.13840
         Item               Value     Threshold  Converged?
 Maximum Force            0.000014     0.000450     YES
 RMS     Force            0.000002     0.000300     YES
 Maximum Displacement     0.002338     0.001800     NO 
 RMS     Displacement     0.000304     0.001200     YES
 Predicted change in Energy=-3.631421D-09
 GradGradGradGradGradGradGradGradGradGradGradGradGradGradGradGradGradGrad

 Leave Link  103 at Sat Nov  2 04:56:47 2024, MaxMem=  2147483648 cpu:             286.2 elap:              48.3
 (Enter /apps/gaussian/g16/l202.exe)
 Stoichiometry    C48H31N3O2S
 Framework group  C1[X(C48H31N3O2S)]
 Deg. of freedom   249
 Full point group                 C1      NOp   1
 RotChk:  IX=0 Diff= 3.42D-01
 Largest Abelian subgroup         C1      NOp   1
 Largest concise Abelian subgroup C1      NOp   1
                         Standard orientation:                         
 ---------------------------------------------------------------------
 Center     Atomic      Atomic             Coordinates (Angstroms)
 Number     Number       Type             X           Y           Z
 ---------------------------------------------------------------------
      1          6           0        0.971807    1.798368    1.196644
      2          6           0        2.425538    1.118740   -0.389060
      3          6           0       -0.132444    1.949346    2.036460
      4          6           0        2.145082    2.568930    1.366274
      5          6           0        3.044380    0.487033   -1.469820
      6          6           0        3.081289    2.125375    0.358182
      7          6           0       -0.053776    2.905770    3.042399
      8          1           0       -1.021035    1.341532    1.908753
      9          6           0        2.200679    3.523747    2.386001
     10          6           0        4.344121    0.866590   -1.782294
     11          1           0        2.531439   -0.276719   -2.042894
     12          6           0        4.388388    2.490541    0.023263
     13          6           0        1.098401    3.690643    3.216263
     14          1           0       -0.902362    3.047009    3.703540
     15          1           0        3.093555    4.124042    2.527725
     16          6           0        5.014717    1.856118   -1.043233
     17          1           0        4.849521    0.383697   -2.611980
     18          1           0        4.905518    3.259281    0.588245
     19          6           0        0.187274    0.009597   -0.363785
     20          6           0       -1.085433    0.445682   -0.852668
     21          6           0       -2.051803   -0.441015   -1.301141
     22          6           0       -1.794603   -1.841898   -1.316594
     23          6           0       -0.539678   -2.300640   -0.821186
     24          6           0        0.414884   -1.408653   -0.367437
     25          7           0        1.144519    0.922315    0.123539
     26         16           0       -3.108524   -2.953576   -1.544045
     27          8           0       -4.065954   -2.343954   -2.476982
     28          8           0       -2.537788   -4.285415   -1.786877
     29          1           0        1.126581    4.431014    4.008456
     30          1           0        6.030835    2.125863   -1.310113
     31          1           0       -2.980151   -0.061575   -1.711989
     32          1           0       -0.337700   -3.365053   -0.787527
     33          6           0       -4.058670   -3.889465    2.293918
     34          6           0       -3.489429   -3.920007    1.023140
     35          6           0       -3.941061   -3.026290    0.049876
     36          6           0       -4.956609   -2.109622    0.333867
     37          6           0       -5.517626   -2.086622    1.609397
     38          6           0       -5.067416   -2.970992    2.591058
     39          1           0       -3.719303   -4.587927    3.051726
     40          1           0       -2.716471   -4.637657    0.772573
     41          1           0       -5.313639   -1.449677   -0.448910
     42          1           0       -6.317390   -1.387732    1.832892
     43          1           0       -5.508831   -2.952193    3.581986
     44          6           0       -4.446731    4.026655    0.798232
     45          6           0       -4.474987    2.641588    1.003513
     46          6           0       -3.493924    1.810825    0.467131
     47          6           0       -2.494280    2.413064   -0.300475
     48          6           0       -2.440857    3.812196   -0.501483
     49          6           0       -3.426024    4.621675    0.052468
     50          1           0       -5.222488    4.647079    1.233125
     51          1           0       -5.269570    2.203927    1.597276
     52          1           0       -3.505934    0.741878    0.642867
     53          1           0       -3.399874    5.697262   -0.083833
     54          6           0       -0.637365    2.824025   -1.532540
     55          6           0        0.489136    2.694148   -2.342948
     56          6           0        1.047074    3.862523   -2.856798
     57          6           0        0.477820    5.113543   -2.594327
     58          6           0       -0.681946    5.227848   -1.822131
     59          6           0       -1.248441    4.075069   -1.290954
     60          1           0        0.912773    1.724986   -2.567852
     61          1           0        1.936961    3.793835   -3.471654
     62          1           0        0.934334    6.005818   -3.008021
     63          1           0       -1.133081    6.198510   -1.647479
     64          7           0       -1.387956    1.823957   -0.913805
     65          6           0        4.542313   -4.234578   -1.756627
     66          6           0        3.391521   -3.945629   -2.502048
     67          6           0        2.355531   -3.183265   -1.967541
     68          6           0        2.502426   -2.732425   -0.654218
     69          6           0        3.662833   -3.003946    0.107599
     70          6           0        4.687968   -3.761389   -0.451743
     71          1           0        5.332300   -4.828812   -2.202527
     72          1           0        3.302629   -4.318713   -3.516292
     73          1           0        1.470520   -2.951342   -2.547751
     74          1           0        5.588281   -3.975647    0.114084
     75          6           0        2.220109   -1.713291    1.348599
     76          6           0        1.686517   -1.053281    2.454509
     77          6           0        2.474500   -0.979857    3.599730
     78          6           0        3.742876   -1.572137    3.647393
     79          6           0        4.249034   -2.271151    2.549945
     80          6           0        3.481816   -2.348983    1.391277
     81          1           0        0.697706   -0.615510    2.425983
     82          1           0        2.093089   -0.454434    4.467912
     83          1           0        4.333844   -1.497728    4.553608
     84          1           0        5.221257   -2.749296    2.602638
     85          7           0        1.641071   -1.933493    0.099480
 ---------------------------------------------------------------------
 Rotational constants (GHZ):           0.0628030           0.0573771           0.0405227
 Leave Link  202 at Sat Nov  2 04:56:47 2024, MaxMem=  2147483648 cpu:               0.7 elap:               0.1
 (Enter /apps/gaussian/g16/l301.exe)
 Standard basis: 6-31G(d,p) (6D, 7F)
 Ernie: Thresh=  0.10000D-02 Tol=  0.10000D-05 Strict=F.
 There are   969 symmetry adapted cartesian basis functions of A   symmetry.
 There are   969 symmetry adapted basis functions of A   symmetry.
   969 basis functions,  1753 primitive gaussians,   969 cartesian basis functions
   186 alpha electrons      186 beta electrons
       nuclear repulsion energy      7519.2653048592 Hartrees.
 IExCor= 4639 DFT=T Ex+Corr=wB97XD ExCW=0 ScaHFX=  1.000000
 ScaDFX=  1.000000  1.000000  1.000000  1.000000 ScalE2=  1.000000  1.000000
 IRadAn=      5 IRanWt=     -1 IRanGd=            0 ICorTp=0 IEmpDi=121
 HFx  wShort=  0.000000 wLong=  0.119500 cFull=  0.222036 cShort=  0.000000 cLong=  0.777964
 DFx  wShort=  0.000000 wLong=  0.119500 cFull=  0.000000 cShort=  0.000000 cLong=  1.000000
 NAtoms=   85 NActive=   85 NUniq=   85 SFac= 1.00D+00 NAtFMM=   60 NAOKFM=T Big=T
 Integral buffers will be    131072 words long.
 Raffenetti 1 integral format.
 Two-electron integral symmetry is turned on.
 R6Disp:  Grimme-D2 Dispersion energy=       -0.0949908405 Hartrees.
 Nuclear repulsion after empirical dispersion term =     7519.1703140187 Hartrees.
 Leave Link  301 at Sat Nov  2 04:56:47 2024, MaxMem=  2147483648 cpu:               1.4 elap:               0.2
 (Enter /apps/gaussian/g16/l302.exe)
 NPDir=0 NMtPBC=     1 NCelOv=     1 NCel=       1 NClECP=     1 NCelD=      1
         NCelK=      1 NCelE2=     1 NClLst=     1 CellRange=     0.0.
 One-electron integrals computed using PRISM.
 One-electron integral symmetry used in STVInt
 NBasis=   969 RedAO= T EigKep=  2.64D-04  NBF=   969
 NBsUse=   969 1.00D-06 EigRej= -1.00D+00 NBFU=   969
 Precomputing XC quadrature grid using
 IXCGrd= 4 IRadAn=           5 IRanWt=          -1 IRanGd=           0 AccXCQ= 0.00D+00.
 Generated NRdTot=       0 NPtTot=           0 NUsed=           0 NTot=          32
 NSgBfM=   951   950   951   951   951 MxSgAt=    85 MxSgA2=    85.
 Leave Link  302 at Sat Nov  2 04:56:53 2024, MaxMem=  2147483648 cpu:              70.8 elap:               6.4
 (Enter /apps/gaussian/g16/l303.exe)
 DipDrv:  MaxL=1.
 Leave Link  303 at Sat Nov  2 04:56:54 2024, MaxMem=  2147483648 cpu:               2.4 elap:               0.4
 (Enter /apps/gaussian/g16/l308.exe)
 Leave Link  308 at Sat Nov  2 04:56:54 2024, MaxMem=  2147483648 cpu:               2.0 elap:               0.3
 (Enter /apps/gaussian/g16/l401.exe)
 Initial guess from the checkpoint file:  "YZ-VIII-197.chk"
 B after Tr=    -0.000000   -0.000000   -0.000000
         Rot=    1.000000    0.000015   -0.000007    0.000163 Ang=   0.02 deg.
 Guess basis will be translated and rotated to current coordinates.
 JPrj=2 DoOrth=T DoCkMO=T.
 Leave Link  401 at Sat Nov  2 04:56:58 2024, MaxMem=  2147483648 cpu:              43.5 elap:               4.4
 (Enter /apps/gaussian/g16/l502.exe)
 Integral symmetry usage will be decided dynamically.
 Closed shell SCF:
 Using DIIS extrapolation, IDIIS=  1040.
 NGot=  2147483648 LenX=  2145578373 LenY=  2144638443
 Requested convergence on RMS density matrix=1.00D-08 within 128 cycles.
 Requested convergence on MAX density matrix=1.00D-06.
 Requested convergence on             energy=1.00D-06.
 No special actions if energy rises.
 Fock matrices will be formed incrementally for  20 cycles.

 Cycle   1  Pass 1  IDiag  1:
 FoFJK:  IHMeth= 1 ICntrl=       0 DoSepK=T KAlg= 0 I1Cent=           0 FoldK=F
 IRaf=         1 NMat=       1 IRICut=       1 DoRegI=T DoRafI=F ISym2E= 0 IDoP0=0 IntGTp=1.
 FoFCou: FMM=T IPFlag=           0 FMFlag=      100000 FMFlg1=        2001
         NFxFlg=           0 DoJE=T BraDBF=F KetDBF=F FulRan=T
         wScrn=  0.000000 ICntrl=       500 IOpCl=  0 I1Cent=           0 NGrid=           0
         NMat0=    1 NMatS0=      1 NMatT0=    0 NMatD0=    1 NMtDS0=    0 NMtDT0=    0
 Symmetry not used in FoFCou.
 FMM levels:  10  Number of levels for PrismC:   9
 E= -2560.24730111312    
 DIIS: error= 1.27D-05 at cycle   1 NSaved=   1.
 NSaved= 1 IEnMin= 1 EnMin= -2560.24730111312     IErMin= 1 ErrMin= 1.27D-05
 ErrMax= 1.27D-05  0.00D+00 EMaxC= 1.00D-01 BMatC= 1.24D-07 BMatP= 1.24D-07
 IDIUse=1 WtCom= 1.00D+00 WtEn= 0.00D+00
 Coeff-Com:  0.100D+01
 Coeff:      0.100D+01
 Gap=     1.863 Goal=   None    Shift=    0.000
 RMSDP=5.48D-07 MaxDP=3.41D-05              OVMax= 9.18D-05

 Cycle   2  Pass 1  IDiag  1:
 RMSU=  5.48D-07    CP:  1.00D+00
 E= -2560.24730135665     Delta-E=       -0.000000243532 Rises=F Damp=F
 DIIS: error= 2.27D-06 at cycle   2 NSaved=   2.
 NSaved= 2 IEnMin= 2 EnMin= -2560.24730135665     IErMin= 2 ErrMin= 2.27D-06
 ErrMax= 2.27D-06  0.00D+00 EMaxC= 1.00D-01 BMatC= 4.01D-09 BMatP= 1.24D-07
 IDIUse=1 WtCom= 1.00D+00 WtEn= 0.00D+00
 Coeff-Com: -0.175D+00 0.117D+01
 Coeff:     -0.175D+00 0.117D+01
 Gap=     0.218 Goal=   None    Shift=    0.000
 RMSDP=1.58D-07 MaxDP=8.06D-06 DE=-2.44D-07 OVMax= 3.06D-05

 Cycle   3  Pass 1  IDiag  1:
 RMSU=  1.04D-07    CP:  1.00D+00  1.22D+00
 E= -2560.24730136889     Delta-E=       -0.000000012236 Rises=F Damp=F
 DIIS: error= 4.75D-07 at cycle   3 NSaved=   3.
 NSaved= 3 IEnMin= 3 EnMin= -2560.24730136889     IErMin= 3 ErrMin= 4.75D-07
 ErrMax= 4.75D-07  0.00D+00 EMaxC= 1.00D-01 BMatC= 3.28D-10 BMatP= 4.01D-09
 IDIUse=1 WtCom= 1.00D+00 WtEn= 0.00D+00
 Coeff-Com: -0.422D-01 0.228D+00 0.814D+00
 Coeff:     -0.422D-01 0.228D+00 0.814D+00
 Gap=     0.218 Goal=   None    Shift=    0.000
 RMSDP=4.08D-08 MaxDP=3.10D-06 DE=-1.22D-08 OVMax= 4.42D-06

 Cycle   4  Pass 1  IDiag  1:
 RMSU=  3.87D-08    CP:  1.00D+00  1.24D+00  1.07D+00
 E= -2560.24730136911     Delta-E=       -0.000000000224 Rises=F Damp=F
 DIIS: error= 4.02D-07 at cycle   4 NSaved=   4.
 NSaved= 4 IEnMin= 4 EnMin= -2560.24730136911     IErMin= 4 ErrMin= 4.02D-07
 ErrMax= 4.02D-07  0.00D+00 EMaxC= 1.00D-01 BMatC= 2.51D-10 BMatP= 3.28D-10
 IDIUse=1 WtCom= 1.00D+00 WtEn= 0.00D+00
 Coeff-Com:  0.162D-01-0.144D+00 0.497D+00 0.630D+00
 Coeff:      0.162D-01-0.144D+00 0.497D+00 0.630D+00
 Gap=     0.218 Goal=   None    Shift=    0.000
 RMSDP=2.16D-08 MaxDP=1.89D-06 DE=-2.24D-10 OVMax= 2.29D-06

 Cycle   5  Pass 1  IDiag  1:
 RMSU=  9.51D-09    CP:  1.00D+00  1.24D+00  1.21D+00  6.56D-01
 E= -2560.24730136956     Delta-E=       -0.000000000449 Rises=F Damp=F
 DIIS: error= 9.56D-08 at cycle   5 NSaved=   5.
 NSaved= 5 IEnMin= 5 EnMin= -2560.24730136956     IErMin= 5 ErrMin= 9.56D-08
 ErrMax= 9.56D-08  0.00D+00 EMaxC= 1.00D-01 BMatC= 9.42D-12 BMatP= 2.51D-10
 IDIUse=1 WtCom= 1.00D+00 WtEn= 0.00D+00
 Coeff-Com:  0.922D-02-0.752D-01 0.182D+00 0.282D+00 0.603D+00
 Coeff:      0.922D-02-0.752D-01 0.182D+00 0.282D+00 0.603D+00
 Gap=     0.218 Goal=   None    Shift=    0.000
 RMSDP=4.97D-09 MaxDP=5.35D-07 DE=-4.49D-10 OVMax= 7.06D-07

 SCF Done:  E(RwB97XD) =  -2560.24730137     A.U. after    5 cycles
            NFock=  5  Conv=0.50D-08     -V/T= 2.0084
 KE= 2.538881560423D+03 PE=-2.099717129659D+04 EE= 8.378872120778D+03
 Leave Link  502 at Sat Nov  2 05:00:10 2024, MaxMem=  2147483648 cpu:            1845.0 elap:             191.4
 (Enter /apps/gaussian/g16/l801.exe)
 DoSCS=F DFT=T ScalE2(SS,OS)=  1.000000  1.000000
 ExpMin= 1.17D-01 ExpMax= 2.19D+04 ExpMxC= 3.30D+03 IAcc=3 IRadAn=         5 AccDes= 0.00D+00
 HarFok:  IExCor=  205 AccDes= 0.00D+00 IRadAn=         5 IDoV=-2 UseB2=F ITyADJ=14
 ICtDFT= 12500011 ScaDFX=  1.000000  1.000000  1.000000  1.000000
 GSVD:  LWork=       -3828 too small for GESVD, short by       17690 words or       17690 for optimal perf.
 Largest valence mixing into a core orbital is  1.65D-04
 Largest core mixing into a valence orbital is  3.45D-05
 Range of M.O.s used for correlation:    59   969
 NBasis=   969 NAE=   186 NBE=   186 NFC=    58 NFV=     0
 NROrb=    911 NOA=   128 NOB=   128 NVA=   783 NVB=   783

 **** Warning!!: The largest alpha MO coefficient is  0.12230892D+02

 Leave Link  801 at Sat Nov  2 05:00:13 2024, MaxMem=  2147483648 cpu:              27.8 elap:               3.0
 (Enter /apps/gaussian/g16/l914.exe)
 RHF ground state
 Two-electron integrals replicated using symmetry.
 MDV=  2147483648 DFT=T DoStab=F Mixed=T DoRPA=F DoScal=F NonHer=F
 Making orbital integer symmetry assigments:
 Orbital symmetries:
       Occupied  (A) (A) (A) (A) (A) (A) (A) (A) (A) (A) (A) (A)
                 (A) (A) (A) (A) (A) (A) (A) (A) (A) (A) (A) (A)
                 (A) (A) (A) (A) (A) (A) (A) (A) (A) (A) (A) (A)
                 (A) (A) (A) (A) (A) (A) (A) (A) (A) (A) (A) (A)
                 (A) (A) (A) (A) (A) (A) (A) (A) (A) (A) (A) (A)
                 (A) (A) (A) (A) (A) (A) (A) (A) (A) (A) (A) (A)
                 (A) (A) (A) (A) (A) (A) (A) (A) (A) (A) (A) (A)
                 (A) (A) (A) (A) (A) (A) (A) (A) (A) (A) (A) (A)
                 (A) (A) (A) (A) (A) (A) (A) (A) (A) (A) (A) (A)
                 (A) (A) (A) (A) (A) (A) (A) (A) (A) (A) (A) (A)
                 (A) (A) (A) (A) (A) (A) (A) (A) (A) (A) (A) (A)
                 (A) (A) (A) (A) (A) (A) (A) (A) (A) (A) (A) (A)
                 (A) (A) (A) (A) (A) (A) (A) (A) (A) (A) (A) (A)
                 (A) (A) (A) (A) (A) (A) (A) (A) (A) (A) (A) (A)
                 (A) (A) (A) (A) (A) (A) (A) (A) (A) (A) (A) (A)
                 (A) (A) (A) (A) (A) (A)
       Virtual   (A) (A) (A) (A) (A) (A) (A) (A) (A) (A) (A) (A)
                 (A) (A) (A) (A) (A) (A) (A) (A) (A) (A) (A) (A)
                 (A) (A) (A) (A) (A) (A) (A) (A) (A) (A) (A) (A)
                 (A) (A) (A) (A) (A) (A) (A) (A) (A) (A) (A) (A)
                 (A) (A) (A) (A) (A) (A) (A) (A) (A) (A) (A) (A)
                 (A) (A) (A) (A) (A) (A) (A) (A) (A) (A) (A) (A)
                 (A) (A) (A) (A) (A) (A) (A) (A) (A) (A) (A) (A)
                 (A) (A) (A) (A) (A) (A) (A) (A) (A) (A) (A) (A)
                 (A) (A) (A) (A) (A) (A) (A) (A) (A) (A) (A) (A)
                 (A) (A) (A) (A) (A) (A) (A) (A) (A) (A) (A) (A)
                 (A) (A) (A) (A) (A) (A) (A) (A) (A) (A) (A) (A)
                 (A) (A) (A) (A) (A) (A) (A) (A) (A) (A) (A) (A)
                 (A) (A) (A) (A) (A) (A) (A) (A) (A) (A) (A) (A)
                 (A) (A) (A) (A) (A) (A) (A) (A) (A) (A) (A) (A)
                 (A) (A) (A) (A) (A) (A) (A) (A) (A) (A) (A) (A)
                 (A) (A) (A) (A) (A) (A) (A) (A) (A) (A) (A) (A)
                 (A) (A) (A) (A) (A) (A) (A) (A) (A) (A) (A) (A)
                 (A) (A) (A) (A) (A) (A) (A) (A) (A) (A) (A) (A)
                 (A) (A) (A) (A) (A) (A) (A) (A) (A) (A) (A) (A)
                 (A) (A) (A) (A) (A) (A) (A) (A) (A) (A) (A) (A)
                 (A) (A) (A) (A) (A) (A) (A) (A) (A) (A) (A) (A)
                 (A) (A) (A) (A) (A) (A) (A) (A) (A) (A) (A) (A)
                 (A) (A) (A) (A) (A) (A) (A) (A) (A) (A) (A) (A)
                 (A) (A) (A) (A) (A) (A) (A) (A) (A) (A) (A) (A)
                 (A) (A) (A) (A) (A) (A) (A) (A) (A) (A) (A) (A)
                 (A) (A) (A) (A) (A) (A) (A) (A) (A) (A) (A) (A)
                 (A) (A) (A) (A) (A) (A) (A) (A) (A) (A) (A) (A)
                 (A) (A) (A) (A) (A) (A) (A) (A) (A) (A) (A) (A)
                 (A) (A) (A) (A) (A) (A) (A) (A) (A) (A) (A) (A)
                 (A) (A) (A) (A) (A) (A) (A) (A) (A) (A) (A) (A)
                 (A) (A) (A) (A) (A) (A) (A) (A) (A) (A) (A) (A)
                 (A) (A) (A) (A) (A) (A) (A) (A) (A) (A) (A) (A)
                 (A) (A) (A) (A) (A) (A) (A) (A) (A) (A) (A) (A)
                 (A) (A) (A) (A) (A) (A) (A) (A) (A) (A) (A) (A)
                 (A) (A) (A) (A) (A) (A) (A) (A) (A) (A) (A) (A)
                 (A) (A) (A) (A) (A) (A) (A) (A) (A) (A) (A) (A)
                 (A) (A) (A) (A) (A) (A) (A) (A) (A) (A) (A) (A)
                 (A) (A) (A) (A) (A) (A) (A) (A) (A) (A) (A) (A)
                 (A) (A) (A) (A) (A) (A) (A) (A) (A) (A) (A) (A)
                 (A) (A) (A) (A) (A) (A) (A) (A) (A) (A) (A) (A)
                 (A) (A) (A) (A) (A) (A) (A) (A) (A) (A) (A) (A)
                 (A) (A) (A) (A) (A) (A) (A) (A) (A) (A) (A) (A)
                 (A) (A) (A) (A) (A) (A) (A) (A) (A) (A) (A) (A)
                 (A) (A) (A) (A) (A) (A) (A) (A) (A) (A) (A) (A)
                 (A) (A) (A) (A) (A) (A) (A) (A) (A) (A) (A) (A)
                 (A) (A) (A) (A) (A) (A) (A) (A) (A) (A) (A) (A)
                 (A) (A) (A) (A) (A) (A) (A) (A) (A) (A) (A) (A)
                 (A) (A) (A) (A) (A) (A) (A) (A) (A) (A) (A) (A)
                 (A) (A) (A) (A) (A) (A) (A) (A) (A) (A) (A) (A)
                 (A) (A) (A) (A) (A) (A) (A) (A) (A) (A) (A) (A)
                 (A) (A) (A) (A) (A) (A) (A) (A) (A) (A) (A) (A)
                 (A) (A) (A) (A) (A) (A) (A) (A) (A) (A) (A) (A)
                 (A) (A) (A) (A) (A) (A) (A) (A) (A) (A) (A) (A)
                 (A) (A) (A) (A) (A) (A) (A) (A) (A) (A) (A) (A)
                 (A) (A) (A) (A) (A) (A) (A) (A) (A) (A) (A) (A)
                 (A) (A) (A) (A) (A) (A) (A) (A) (A) (A) (A) (A)
                 (A) (A) (A) (A) (A) (A) (A) (A) (A) (A) (A) (A)
                 (A) (A) (A) (A) (A) (A) (A) (A) (A) (A) (A) (A)
                 (A) (A) (A) (A) (A) (A) (A) (A) (A) (A) (A) (A)
                 (A) (A) (A) (A) (A) (A) (A) (A) (A) (A) (A) (A)
                 (A) (A) (A) (A) (A) (A) (A) (A) (A) (A) (A) (A)
                 (A) (A) (A) (A) (A) (A) (A) (A) (A) (A) (A) (A)
                 (A) (A) (A) (A) (A) (A) (A) (A) (A) (A) (A) (A)
                 (A) (A) (A) (A) (A) (A) (A) (A) (A) (A) (A) (A)
                 (A) (A) (A) (A) (A) (A) (A) (A) (A) (A) (A) (A)
                 (A) (A) (A)
 Generating guess from densities on rwf.
 Convergence on wavefunction:    0.000001000000000
 Davidson Disk Diagonalization:  ConvIn= 1.00D-06 SkipCon=T Conv= 1.00D-06.
 Max sub-space:  2000 roots to seek:     4 dimension of matrix:       200448
 Iteration     1 Dimension     4 NMult     0 NNew      4
 CISAX will form     4 AO SS matrices at one time.
 NMat=     4 NSing=     0 JSym2X= 0.
 FoFJK:  IHMeth= 1 ICntrl=       0 DoSepK=T KAlg= 0 I1Cent=           0 FoldK=F
 IRaf=         1 NMat=       8 IRICut=       1 DoRegI=T DoRafI=F ISym2E= 0 IDoP0=0 IntGTp=1.
 FoFCou: FMM=T IPFlag=           0 FMFlag=      100000 FMFlg1=        2001
         NFxFlg=           0 DoJE=F BraDBF=F KetDBF=F FulRan=T
         wScrn=  0.000000 ICntrl=         0 IOpCl=  0 I1Cent=           0 NGrid=           0
         NMat0=    8 NMatS0=      0 NMatT0=    4 NMatD0=    8 NMtDS0=    0 NMtDT0=    0
         CW=    0.222036    0.777964
         WU=    0.000000   35.013393
 Symmetry not used in FoFCou.
 FMM levels:  10  Number of levels for PrismC:   7
 Excitation Energies [eV] at current iteration:
 Root      1 :     2.976568989859774
 Root      2 :     3.052790580737103
 Root      3 :     3.314116070680658
 Root      4 :     3.504203042345733
 Iteration     2 Dimension     8 NMult     4 NNew      4
 CISAX will form     4 AO SS matrices at one time.
 NMat=     4 NSing=     0 JSym2X= 0.
 Root      1 not converged, maximum delta is    0.000057732431094
 Root      2 not converged, maximum delta is    0.000066770076951
 Root      3 not converged, maximum delta is    0.000059488940922
 Root      4 not converged, maximum delta is    0.000026236840259
 Excitation Energies [eV] at current iteration:
 Root      1 :     2.976567425118168   Change is   -0.000001564741606
 Root      2 :     3.052788893503843   Change is   -0.000001687233259
 Root      3 :     3.314114488321980   Change is   -0.000001582358678
 Root      4 :     3.504201817159504   Change is   -0.000001225186229
 Iteration     3 Dimension    12 NMult     8 NNew      4
 CISAX will form     4 AO SS matrices at one time.
 NMat=     4 NSing=     0 JSym2X= 0.
 Root      1 not converged, maximum delta is    0.000006074406444
 Root      2 not converged, maximum delta is    0.000012507255400
 Root      3 not converged, maximum delta is    0.000012161831235
 Root      4 not converged, maximum delta is    0.000007185798167
 Excitation Energies [eV] at current iteration:
 Root      1 :     2.976567405958211   Change is   -0.000000019159956
 Root      2 :     3.052788871588133   Change is   -0.000000021915710
 Root      3 :     3.314114467720774   Change is   -0.000000020601206
 Root      4 :     3.504201797668892   Change is   -0.000000019490612
 Iteration     4 Dimension    16 NMult    12 NNew      4
 CISAX will form     4 AO SS matrices at one time.
 NMat=     4 NSing=     0 JSym2X= 0.
 Root      1 not converged, maximum delta is    0.000003358986485
 Root      2 not converged, maximum delta is    0.000003706794623
 Root      3 not converged, maximum delta is    0.000004585049278
 Root      4 not converged, maximum delta is    0.000009745693833
 Excitation Energies [eV] at current iteration:
 Root      1 :     2.976567405088650   Change is   -0.000000000869561
 Root      2 :     3.052788870431800   Change is   -0.000000001156333
 Root      3 :     3.314114466695458   Change is   -0.000000001025315
 Root      4 :     3.504201796596309   Change is   -0.000000001072583
 Iteration     5 Dimension    20 NMult    16 NNew      4
 CISAX will form     4 AO SS matrices at one time.
 NMat=     4 NSing=     0 JSym2X= 0.
 Root      1 not converged, maximum delta is    0.000002791025938
 Root      2 not converged, maximum delta is    0.000001629332418
 Root      3 not converged, maximum delta is    0.000003523928423
 Root      4 not converged, maximum delta is    0.000016483501249
 Excitation Energies [eV] at current iteration:
 Root      1 :     2.976567404915501   Change is   -0.000000000173150
 Root      2 :     3.052788870228694   Change is   -0.000000000203107
 Root      3 :     3.314114466383249   Change is   -0.000000000312210
 Root      4 :     3.504201795750886   Change is   -0.000000000845422
 Iteration     6 Dimension    24 NMult    20 NNew      4
 CISAX will form     4 AO SS matrices at one time.
 NMat=     4 NSing=     0 JSym2X= 0.
 Root      1 not converged, maximum delta is    0.000001510189959
 Root      2 not converged, maximum delta is    0.000001129298805
 Root      3 not converged, maximum delta is    0.000002441985047
 Root      4 not converged, maximum delta is    0.000012911684893
 Excitation Energies [eV] at current iteration:
 Root      1 :     2.976567404856928   Change is   -0.000000000058573
 Root      2 :     3.052788870168973   Change is   -0.000000000059721
 Root      3 :     3.314114466178076   Change is   -0.000000000205173
 Root      4 :     3.504201795198332   Change is   -0.000000000552554
 Iteration     7 Dimension    28 NMult    24 NNew      4
 CISAX will form     4 AO SS matrices at one time.
 NMat=     4 NSing=     0 JSym2X= 0.
 Root      1 not converged, maximum delta is    0.000001015944605
 Root      2 not converged, maximum delta is    0.000001000878367
 Root      3 not converged, maximum delta is    0.000001821098040
 Root      4 not converged, maximum delta is    0.000003536347438
 Excitation Energies [eV] at current iteration:
 Root      1 :     2.976567404828802   Change is   -0.000000000028126
 Root      2 :     3.052788870137506   Change is   -0.000000000031467
 Root      3 :     3.314114466059886   Change is   -0.000000000118190
 Root      4 :     3.504201795052070   Change is   -0.000000000146262
 Iteration     8 Dimension    32 NMult    28 NNew      4
 CISAX will form     4 AO SS matrices at one time.
 NMat=     4 NSing=     0 JSym2X= 0.
 Root      1 not converged, maximum delta is    0.000001019119295
 Root      2 not converged, maximum delta is    0.000001547601896
 Root      3 not converged, maximum delta is    0.000001001172418
 Root      4 not converged, maximum delta is    0.000001544765185
 Excitation Energies [eV] at current iteration:
 Root      1 :     2.976567404806621   Change is   -0.000000000022181
 Root      2 :     3.052788870099700   Change is   -0.000000000037806
 Root      3 :     3.314114466012944   Change is   -0.000000000046941
 Root      4 :     3.504201794994652   Change is   -0.000000000057418
 Iteration     9 Dimension    36 NMult    32 NNew      4
 CISAX will form     4 AO SS matrices at one time.
 NMat=     4 NSing=     0 JSym2X= 0.
 Root      1 not converged, maximum delta is    0.000001001599797
 Root      2 not converged, maximum delta is    0.000001011004526
 Root      3 not converged, maximum delta is    0.000001004927073
 Root      4 not converged, maximum delta is    0.000001010055902
 Excitation Energies [eV] at current iteration:
 Root      1 :     2.976567404787426   Change is   -0.000000000019196
 Root      2 :     3.052788870080807   Change is   -0.000000000018894
 Root      3 :     3.314114465989398   Change is   -0.000000000023546
 Root      4 :     3.504201794958163   Change is   -0.000000000036488
 Iteration    10 Dimension    40 NMult    36 NNew      4
 CISAX will form     4 AO SS matrices at one time.
 NMat=     4 NSing=     0 JSym2X= 0.
 Root      1 not converged, maximum delta is    0.000001007776599
 Root      2 has converged.
 Root      3 not converged, maximum delta is    0.000001017889354
 Root      4 not converged, maximum delta is    0.000001015858332
 Excitation Energies [eV] at current iteration:
 Root      1 :     2.976567404779933   Change is   -0.000000000007492
 Root      2 :     3.052788870075852   Change is   -0.000000000004955
 Root      3 :     3.314114465974450   Change is   -0.000000000014948
 Root      4 :     3.504201794930490   Change is   -0.000000000027673
 Iteration    11 Dimension    43 NMult    40 NNew      3
 CISAX will form     3 AO SS matrices at one time.
 NMat=     3 NSing=     0 JSym2X= 0.
 Root      1 has converged.
 Root      2 has converged.
 Root      3 not converged, maximum delta is    0.000001000534519
 Root      4 not converged, maximum delta is    0.000001013224431
 Excitation Energies [eV] at current iteration:
 Root      1 :     2.976567404777353   Change is   -0.000000000002580
 Root      2 :     3.052788870075779   Change is   -0.000000000000073
 Root      3 :     3.314114465964299   Change is   -0.000000000010151
 Root      4 :     3.504201794908437   Change is   -0.000000000022054
 Iteration    12 Dimension    45 NMult    43 NNew      2
 CISAX will form     2 AO SS matrices at one time.
 NMat=     2 NSing=     0 JSym2X= 0.
 Root      1 has converged.
 Root      2 has converged.
 Root      3 has converged.
 Root      4 has converged.
 Excitation Energies [eV] at current iteration:
 Root      1 :     2.976567404777371   Change is    0.000000000000018
 Root      2 :     3.052788870075713   Change is   -0.000000000000066
 Root      3 :     3.314114465956740   Change is   -0.000000000007559
 Root      4 :     3.504201794889833   Change is   -0.000000000018604
 Convergence achieved on expansion vectors.
 ***********************************************************************
 Excited states from <AA,BB:AA,BB> singles matrix:
 ***********************************************************************
 
 1PDM for each excited state written to RWF  633
 Ground to excited state transition densities written to RWF  633
 Ground to excited state transition electric dipole moments (Au):
       state          X           Y           Z        Dip. S.      Osc.
         1        -0.0000     -0.0000     -0.0000      0.0000      0.0000
         2        -0.0000     -0.0000     -0.0000      0.0000      0.0000
         3        -0.0000     -0.0000     -0.0000      0.0000      0.0000
         4        -0.0000     -0.0000     -0.0000      0.0000      0.0000
 Ground to excited state transition velocity dipole moments (Au):
       state          X           Y           Z        Dip. S.      Osc.
         1         0.0000      0.0000      0.0000      0.0000      0.0000
         2         0.0000      0.0000      0.0000      0.0000      0.0000
         3         0.0000      0.0000      0.0000      0.0000      0.0000
         4         0.0000      0.0000      0.0000      0.0000      0.0000
 Ground to excited state transition magnetic dipole moments (Au):
       state          X           Y           Z
         1         0.0000      0.0000      0.0000
         2         0.0000      0.0000      0.0000
         3         0.0000      0.0000      0.0000
         4         0.0000      0.0000      0.0000
 Ground to excited state transition velocity quadrupole moments (Au):
       state          XX          YY          ZZ          XY          XZ          YZ
         1         0.0000      0.0000      0.0000      0.0000      0.0000      0.0000
         2         0.0000      0.0000      0.0000      0.0000      0.0000      0.0000
         3         0.0000      0.0000      0.0000      0.0000      0.0000      0.0000
         4         0.0000      0.0000      0.0000      0.0000      0.0000      0.0000
 <0|del|b> * <b|rxdel|0> + <0|del|b> * <b|delr+rdel|0>
[...]
 Alpha virt. eigenvalues --    0.76442   0.77177   0.77362   0.77976   0.78215
 Alpha virt. eigenvalues --    0.78363   0.79458   0.80467   0.80998   0.81575
 Alpha virt. eigenvalues --    0.83197   0.83914   0.84136   0.84610   0.85059
 Alpha virt. eigenvalues --    0.85267   0.85591   0.85947   0.86227   0.86536
 Alpha virt. eigenvalues --    0.86635   0.86761   0.86856   0.87017   0.87195
 Alpha virt. eigenvalues --    0.87763   0.87978   0.88809   0.89317   0.89592
 Alpha virt. eigenvalues --    0.89638   0.89752   0.89947   0.90255   0.90439
 Alpha virt. eigenvalues --    0.90687   0.90830   0.91017   0.91354   0.91659
 Alpha virt. eigenvalues --    0.91944   0.92200   0.92293   0.92853   0.92938
 Alpha virt. eigenvalues --    0.93240   0.93749   0.94048   0.94296   0.94741
 Alpha virt. eigenvalues --    0.95215   0.95350   0.95604   0.95875   0.96310
 Alpha virt. eigenvalues --    0.96658   0.96801   0.96852   0.97152   0.97543
 Alpha virt. eigenvalues --    0.97896   0.98669   0.99201   0.99457   1.00051
 Alpha virt. eigenvalues --    1.00359   1.00901   1.01739   1.02073   1.02569
 Alpha virt. eigenvalues --    1.03177   1.03230   1.03695   1.04090   1.04497
 Alpha virt. eigenvalues --    1.04977   1.05201   1.05382   1.06089   1.06261
 Alpha virt. eigenvalues --    1.06280   1.07267   1.07566   1.07746   1.08389
 Alpha virt. eigenvalues --    1.08921   1.09139   1.09947   1.10039   1.10355
 Alpha virt. eigenvalues --    1.11537   1.11667   1.12212   1.12870   1.13475
 Alpha virt. eigenvalues --    1.14151   1.14234   1.14789   1.15161   1.15922
 Alpha virt. eigenvalues --    1.16144   1.16284   1.16932   1.17887   1.18388
 Alpha virt. eigenvalues --    1.18645   1.19148   1.19418   1.20263   1.20855
 Alpha virt. eigenvalues --    1.21277   1.22213   1.22958   1.23456   1.23655
 Alpha virt. eigenvalues --    1.24336   1.24418   1.24654   1.25228   1.25531
 Alpha virt. eigenvalues --    1.25908   1.26054   1.26114   1.26624   1.26915
 Alpha virt. eigenvalues --    1.27321   1.28040   1.29332   1.29531   1.29977
 Alpha virt. eigenvalues --    1.30193   1.30546   1.30806   1.31266   1.32320
 Alpha virt. eigenvalues --    1.32964   1.33016   1.33534   1.33878   1.34905
 Alpha virt. eigenvalues --    1.34979   1.35578   1.36164   1.36550   1.37927
 Alpha virt. eigenvalues --    1.38177   1.38428   1.38900   1.39343   1.40581
 Alpha virt. eigenvalues --    1.40986   1.41470   1.41661   1.41737   1.42271
 Alpha virt. eigenvalues --    1.42514   1.42668   1.42962   1.43020   1.43318
 Alpha virt. eigenvalues --    1.43603   1.43762   1.43830   1.44758   1.45185
 Alpha virt. eigenvalues --    1.45558   1.45649   1.46142   1.46287   1.46433
 Alpha virt. eigenvalues --    1.46557   1.46637   1.46761   1.46971   1.47011
 Alpha virt. eigenvalues --    1.47042   1.47422   1.47466   1.47998   1.48342
 Alpha virt. eigenvalues --    1.48512   1.49073   1.49629   1.50309   1.50853
 Alpha virt. eigenvalues --    1.51160   1.52276   1.53373   1.53974   1.56285
 Alpha virt. eigenvalues --    1.59615   1.60249   1.61145   1.63013   1.64565
 Alpha virt. eigenvalues --    1.64962   1.66199   1.66439   1.66896   1.67494
 Alpha virt. eigenvalues --    1.67953   1.68286   1.68443   1.70209   1.72237
 Alpha virt. eigenvalues --    1.73902   1.77050   1.77631   1.78571   1.79114
 Alpha virt. eigenvalues --    1.79895   1.80303   1.80416   1.81001   1.81297
 Alpha virt. eigenvalues --    1.81689   1.81799   1.82360   1.82565   1.82971
 Alpha virt. eigenvalues --    1.83229   1.83768   1.84561   1.84610   1.85140
 Alpha virt. eigenvalues --    1.85345   1.85876   1.85986   1.86583   1.86985
 Alpha virt. eigenvalues --    1.87294   1.87854   1.88557   1.88850   1.89066
 Alpha virt. eigenvalues --    1.89236   1.89589   1.89670   1.90940   1.91665
 Alpha virt. eigenvalues --    1.92090   1.92209   1.93547   1.94151   1.94479
 Alpha virt. eigenvalues --    1.94687   1.94980   1.95244   1.95800   1.96049
 Alpha virt. eigenvalues --    1.96668   1.97307   1.97712   1.97822   1.97921
 Alpha virt. eigenvalues --    1.98144   1.98338   1.98586   1.98601   1.98846
 Alpha virt. eigenvalues --    1.99001   1.99323   1.99660   2.00182   2.00757
 Alpha virt. eigenvalues --    2.00791   2.01341   2.01930   2.02151   2.02283
 Alpha virt. eigenvalues --    2.02485   2.02907   2.03079   2.03441   2.03515
 Alpha virt. eigenvalues --    2.03749   2.04360   2.04505   2.04755   2.04899
 Alpha virt. eigenvalues --    2.05124   2.05526   2.05772   2.05994   2.06026
 Alpha virt. eigenvalues --    2.06256   2.06670   2.07188   2.07702   2.08278
 Alpha virt. eigenvalues --    2.08798   2.09000   2.09463   2.09620   2.09936
 Alpha virt. eigenvalues --    2.10024   2.10671   2.11038   2.12253   2.12632
 Alpha virt. eigenvalues --    2.14030   2.14568   2.15565   2.16038   2.16613
 Alpha virt. eigenvalues --    2.16971   2.17741   2.17860   2.18714   2.19788
 Alpha virt. eigenvalues --    2.19986   2.20872   2.21725   2.22291   2.22821
 Alpha virt. eigenvalues --    2.24709   2.25107   2.25996   2.26349   2.27890
 Alpha virt. eigenvalues --    2.27974   2.28532   2.28833   2.29399   2.29484
 Alpha virt. eigenvalues --    2.30000   2.30205   2.30675   2.32108   2.32555
 Alpha virt. eigenvalues --    2.32910   2.33429   2.33898   2.34341   2.34596
 Alpha virt. eigenvalues --    2.34932   2.34984   2.35954   2.36627   2.38300
 Alpha virt. eigenvalues --    2.38584   2.39290   2.39508   2.39901   2.40093
 Alpha virt. eigenvalues --    2.40409   2.40451   2.40648   2.40915   2.41590
 Alpha virt. eigenvalues --    2.41860   2.42616   2.43433   2.43479   2.43961
 Alpha virt. eigenvalues --    2.44073   2.44613   2.44732   2.44817   2.44926
 Alpha virt. eigenvalues --    2.45196   2.45217   2.45642   2.45794   2.45971
 Alpha virt. eigenvalues --    2.46183   2.46762   2.47030   2.48092   2.48436
 Alpha virt. eigenvalues --    2.48919   2.49873   2.49968   2.50200   2.50562
 Alpha virt. eigenvalues --    2.50679   2.50976   2.51429   2.52032   2.52323
 Alpha virt. eigenvalues --    2.52450   2.53362   2.53510   2.53793   2.54070
 Alpha virt. eigenvalues --    2.55095   2.55246   2.55317   2.56183   2.56252
 Alpha virt. eigenvalues --    2.56790   2.57037   2.57082   2.57571   2.58182
 Alpha virt. eigenvalues --    2.58364   2.58562   2.59683   2.59896   2.60666
 Alpha virt. eigenvalues --    2.60811   2.61230   2.61433   2.61525   2.61723
 Alpha virt. eigenvalues --    2.62690   2.62869   2.63322   2.63547   2.63684
 Alpha virt. eigenvalues --    2.63719   2.63941   2.64357   2.64592   2.65148
 Alpha virt. eigenvalues --    2.65573   2.66096   2.66474   2.66913   2.67595
 Alpha virt. eigenvalues --    2.68157   2.68453   2.68596   2.68882   2.69653
 Alpha virt. eigenvalues --    2.70708   2.71117   2.72078   2.72465   2.73340
 Alpha virt. eigenvalues --    2.73957   2.74420   2.74999   2.75243   2.75278
 Alpha virt. eigenvalues --    2.76144   2.77087   2.77487   2.77504   2.78798
 Alpha virt. eigenvalues --    2.78953   2.80119   2.80336   2.80652   2.80766
 Alpha virt. eigenvalues --    2.81405   2.81679   2.82482   2.83160   2.83383
 Alpha virt. eigenvalues --    2.83620   2.84550   2.84911   2.87622   2.88405
 Alpha virt. eigenvalues --    2.89305   2.89688   2.91543   2.91943   2.92160
 Alpha virt. eigenvalues --    2.94650   2.96244   2.96687   2.96723   2.97595
 Alpha virt. eigenvalues --    2.97712   2.98481   2.99382   2.99495   2.99930
 Alpha virt. eigenvalues --    3.00700   3.01204   3.02539   3.03977   3.04966
 Alpha virt. eigenvalues --    3.05201   3.08446   3.10200   3.12598   3.16000
 Alpha virt. eigenvalues --    3.17471   3.19133   3.20603   3.21102   3.22049
 Alpha virt. eigenvalues --    3.23701   3.24816   3.26002   3.26635   3.28400
 Alpha virt. eigenvalues --    3.28657   3.28953   3.29638   3.31102   3.31133
 Alpha virt. eigenvalues --    3.31254   3.31343   3.31726   3.32009   3.32109
 Alpha virt. eigenvalues --    3.32177   3.33580   3.33865   3.36305   3.37745
 Alpha virt. eigenvalues --    3.37819   3.37996   3.38176   3.42148   3.43688
 Alpha virt. eigenvalues --    3.44061   3.44127   3.44162   3.44674   3.45269
 Alpha virt. eigenvalues --    3.46531   3.50186   3.50255   3.51740   3.53882
 Alpha virt. eigenvalues --    3.54373   3.54455   3.55976   3.58264   3.58517
 Alpha virt. eigenvalues --    3.58665   3.66502   3.88494   3.88831   3.88975
 Alpha virt. eigenvalues --    3.89095   3.95043   3.96689   3.96989   3.97195
 Alpha virt. eigenvalues --    4.12782   4.16546   4.17934   4.18270   4.18815
 Alpha virt. eigenvalues --    4.19262   4.21082   4.21338   4.21593   4.21777
 Alpha virt. eigenvalues --    4.21900   4.22076   4.22402   4.24149   4.25874
 Alpha virt. eigenvalues --    4.26346   4.26594   4.27019   4.27524   4.27777
 Alpha virt. eigenvalues --    4.29097   4.29797   4.30781   4.31836   4.32964
 Alpha virt. eigenvalues --    4.34255   4.42768   4.45602   4.47548   4.47794
 Alpha virt. eigenvalues --    4.49048   4.49971   4.50207   4.52209   4.55944
 Alpha virt. eigenvalues --    4.56518   4.57135   4.59357   4.60053   4.60537
 Alpha virt. eigenvalues --    4.60601   4.61375   4.62097   4.62545   4.75224
 Alpha virt. eigenvalues --    4.85032   4.90008   4.91538   4.93080   4.97427
 Alpha virt. eigenvalues --    4.99848   5.00869   5.03758
          Condensed to atoms (all electrons):
 Mulliken charges:
               1
     1  C    0.301181
     2  C    0.303511
     3  C   -0.134485
     4  C    0.033828
     5  C   -0.134553
     6  C    0.034099
     7  C   -0.149484
     8  H    0.124502
     9  C   -0.164599
    10  C   -0.149656
    11  H    0.126264
    12  C   -0.164110
    13  C   -0.151482
    14  H    0.136928
    15  H    0.138197
    16  C   -0.151836
    17  H    0.138929
    18  H    0.137713
    19  C    0.238916
    20  C    0.235527
    21  C   -0.134279
    22  C   -0.217659
    23  C   -0.137793
    24  C    0.238476
    25  N   -0.743134
    26  S    1.174147
    27  O   -0.572734
    28  O   -0.570365
    29  H    0.131566
    30  H    0.131711
    31  H    0.205608
    32  H    0.204528
    33  C   -0.133811
    34  C   -0.116599
    35  C   -0.189847
    36  C   -0.123744
    37  C   -0.137425
    38  C   -0.123490
    39  H    0.154620
    40  H    0.179480
    41  H    0.182699
    42  H    0.152229
    43  H    0.151989
    44  C   -0.152932
    45  C   -0.148480
    46  C   -0.157258
    47  C    0.300484
    48  C    0.030827
    49  C   -0.169551
    50  H    0.131697
    51  H    0.130806
    52  H    0.131859
    53  H    0.140545
    54  C    0.309545
    55  C   -0.121275
    56  C   -0.146108
    57  C   -0.150897
    58  C   -0.171053
    59  C    0.028391
    60  H    0.123899
    61  H    0.140130
    62  H    0.131055
    63  H    0.136891
    64  N   -0.749608
    65  C   -0.153125
    66  C   -0.146468
    67  C   -0.161830
    68  C    0.297243
    69  C    0.029167
    70  C   -0.169345
    71  H    0.132787
    72  H    0.139175
    73  H    0.144607
    74  H    0.139448
    75  C    0.307906
    76  C   -0.122099
    77  C   -0.147438
    78  C   -0.151249
    79  C   -0.169785
    80  C    0.028167
    81  H    0.121840
    82  H    0.138406
    83  H    0.130546
    84  H    0.136970
    85  N   -0.749451
 Sum of Mulliken charges =  -0.00000
 Mulliken charges with hydrogens summed into heavy atoms:
               1
     1  C    0.301181
     2  C    0.303511
     3  C   -0.009984
     4  C    0.033828
     5  C   -0.008289
     6  C    0.034099
     7  C   -0.012556
     9  C   -0.026402
    10  C   -0.010726
    12  C   -0.026397
    13  C   -0.019916
    16  C   -0.020125
    19  C    0.238916
    20  C    0.235527
    21  C    0.071328
    22  C   -0.217659
    23  C    0.066736
    24  C    0.238476
    25  N   -0.743134
    26  S    1.174147
    27  O   -0.572734
    28  O   -0.570365
    33  C    0.020809
    34  C    0.062881
    35  C   -0.189847
    36  C    0.058955
    37  C    0.014804
    38  C    0.028499
    44  C   -0.021235
    45  C   -0.017674
    46  C   -0.025400
    47  C    0.300484
    48  C    0.030827
    49  C   -0.029006
    54  C    0.309545
    55  C    0.002624
    56  C   -0.005978
    57  C   -0.019842
    58  C   -0.034162
    59  C    0.028391
    64  N   -0.749608
    65  C   -0.020338
    66  C   -0.007293
    67  C   -0.017222
    68  C    0.297243
    69  C    0.029167
    70  C   -0.029898
    75  C    0.307906
    76  C   -0.000259
    77  C   -0.009032
    78  C   -0.020702
    79  C   -0.032815
    80  C    0.028167
    85  N   -0.749451
 Electronic spatial extent (au):  <R**2>=          28615.2278
 Charge=             -0.0000 electrons
 Dipole moment (field-independent basis, Debye):
    X=              1.0461    Y=              2.2540    Z=              4.6515  Tot=              5.2736
 Quadrupole moment (field-independent basis, Debye-Ang):
   XX=           -289.7225   YY=           -308.7971   ZZ=           -304.0006
   XY=             -9.6787   XZ=            -28.6803   YZ=            -10.0201
 Traceless Quadrupole moment (field-independent basis, Debye-Ang):
   XX=             11.1176   YY=             -7.9570   ZZ=             -3.1606
   XY=             -9.6787   XZ=            -28.6803   YZ=            -10.0201
 Octapole moment (field-independent basis, Debye-Ang**2):
  XXX=             17.2782  YYY=            122.6177  ZZZ=             51.1082  XYY=             48.4499
  XXY=             19.5187  XXZ=            114.2171  XZZ=             36.7960  YZZ=             -0.4712
  YYZ=             58.5085  XYZ=             66.8999
 Hexadecapole moment (field-independent basis, Debye-Ang**3):
 XXXX=         -16531.8079 YYYY=         -15161.7640 ZZZZ=          -5935.9739 XXXY=           -249.8517
 XXXZ=           -533.5003 YYYX=           -234.1638 YYYZ=           -191.5288 ZZZX=           -203.6945
 ZZZY=             74.0851 XXYY=          -5282.9629 XXZZ=          -3768.7459 YYZZ=          -3502.5068
 XXYZ=           -164.7955 YYXZ=           -317.2493 ZZXY=             17.8340
 N-N= 7.519170314019D+03 E-N=-2.099717136094D+04  KE= 2.538881560423D+03
 No NMR shielding tensors so no spin-rotation constants.
 Leave Link  601 at Sat Nov  2 06:15:38 2024, MaxMem=  2147483648 cpu:               7.6 elap:               0.6
 (Enter /apps/gaussian/g16/l9999.exe)
 Electronic transition elements 
                 1             2             3             4 
      1  -0.256014D+04 -0.256014D+04 -0.256013D+04 -0.256012D+04
      2   0.000000D+00  0.000000D+00  0.000000D+00  0.000000D+00
      3   0.000000D+00  0.000000D+00  0.000000D+00  0.000000D+00
      4   0.000000D+00  0.000000D+00  0.000000D+00  0.000000D+00
      5   0.000000D+00  0.000000D+00  0.000000D+00  0.000000D+00
      6   0.000000D+00  0.000000D+00  0.000000D+00  0.000000D+00
      7   0.000000D+00  0.000000D+00  0.000000D+00  0.000000D+00
      8   0.000000D+00  0.000000D+00  0.000000D+00  0.000000D+00
      9   0.000000D+00  0.000000D+00  0.000000D+00  0.000000D+00
     10   0.000000D+00  0.000000D+00  0.000000D+00  0.000000D+00
     11   0.000000D+00  0.000000D+00  0.000000D+00  0.000000D+00
     12   0.000000D+00  0.000000D+00  0.000000D+00  0.000000D+00
     13   0.000000D+00  0.000000D+00  0.000000D+00  0.000000D+00
     14   0.000000D+00  0.000000D+00  0.000000D+00  0.000000D+00
     15   0.000000D+00  0.000000D+00  0.000000D+00  0.000000D+00
     16   0.000000D+00  0.000000D+00  0.000000D+00  0.000000D+00

 Test job not archived.
 1\1\GINC-PMLP-HPCCLSAP03\FOpt\RwB97XD TDA-FC\6-31G(d,p)\C48H31N3O2S1\W
 ILLIAM1\02-Nov-2024\0\\#p opt wB97XD/6-31G** iop(3/107=0119500000,3/10
 8=0119500000) TDA=(triplets, nstates=4, root=2)\\Tuning input file gen
 erated by xtune with parameters: w01195\\0,1\C,1.7066449005,1.26626151
 21,0.9850201894\C,2.6062690729,-0.1340139,-0.5379995505\C,0.8378895345
 ,1.9762009656,1.8149040561\C,3.1091747303,1.4245453953,1.0685133812\C,
 2.8120985798,-1.0670056307,-1.5564400725\C,3.6865458931,0.5186631358,0
 .1013038071\C,1.3959385076,2.8705757291,2.7212836895\H,-0.2353203501,1
 .8349557343,1.7548099553\C,3.6467078388,2.3292249772,1.9889600501\C,4.
 1237638613,-1.3529896115,-1.9152965308\H,1.9784566798,-1.5556528703,-2
 .0474633777\C,4.9970232845,0.2146949651,-0.2785339112\C,2.7864555105,3
 .0515454981,2.8077554978\H,0.7406317824,3.43977557,3.3722357984\H,4.72
 10339966,2.4630262316,2.0637059321\C,5.2090161998,-0.7229380551,-1.282
 5738856\H,4.3096653473,-2.0813097565,-2.6975914772\H,5.8362372757,0.70
 51592193,0.2039126887\C,0.1132259283,-0.0874812852,-0.3855732867\C,-0.
 8448519035,0.8407961617,-0.9045616431\C,-2.1309559068,0.4615991538,-1.
 2558096778\C,-2.5411403989,-0.897134852,-1.1355820411\C,-1.6088438998,
 -1.8367648697,-0.6077293846\C,-0.3305495069,-1.4470337489,-0.251654548
 2\N,1.4051015405,0.3221725893,0.0018530099\S,-4.2270362544,-1.29762772
 52,-1.241937188\O,-4.8490911617,-0.397439509,-2.22244275\O,-4.33900702
 47,-2.7579881496,-1.3573234202\H,3.1900704616,3.7600079018,3.523080190
 8\H,6.2209856812,-0.97228439,-1.5829521529\H,-2.8047021324,1.188455811
 8,-1.6943821662\H,-1.9123111481,-2.8683584905,-0.471252679\C,-5.297091
 8173,-1.3692367284,2.6770517546\C,-4.8715046392,-1.7634532182,1.410831
 3585\C,-4.9167619312,-0.8470739357,0.3581462806\C,-5.3870358221,0.4532
 330223,0.5589276607\C,-5.8085008495,0.8374040513,1.830550938\C,-5.7598
 121667,-0.0693500286,2.8906853245\H,-5.2739524609,-2.0794141547,3.4970
 544452\H,-4.524452338,-2.7736799997,1.2257271418\H,-5.4447196965,1.135
 3367803,-0.2819914988\H,-6.1893349419,1.8410526561,1.9907786361\H,-6.0
 917676141,0.2324812438,3.8785319158\C,-2.115144238,5.688033499,0.41369
 72368\C,-2.7602886399,4.4925878996,0.7543548718\C,-2.29473273,3.262987
 1724,0.2942505868\C,-1.1721578221,3.2735103726,-0.536960845\C,-0.49801
 65456,4.4702244316,-0.8749535398\C,-0.9759950838,5.6843426449,-0.39524
 08509\H,-2.4993279102,6.6289330533,0.7918090299\H,-3.6347532347,4.5191
 653997,1.394721019\H,-2.7830220818,2.3373404187,0.5743014805\H,-0.4700
 545926,6.6126823604,-0.6368170259\C,0.6009354968,2.6830289714,-1.81855
 39192\C,1.5006116228,1.984023642,-2.62142859\C,2.5017019151,2.71915730
 09,-3.2521689726\C,2.5792109545,4.1089679494,-3.1093075833\C,1.6408817
 288,4.8062442408,-2.3426565772\C,0.6401940874,4.0902825062,-1.69613662
 07\H,1.4240072236,0.9134940569,-2.7534249584\H,3.2291741687,2.19909665
 95,-3.8645303226\H,3.3696593192,4.6546587316,-3.6124130947\H,1.6911034
 239,5.8865008116,-2.2605905906\N,-0.489246914,2.1938906931,-1.09841312
 79\C,1.9781718024,-5.9554121247,-1.3899448437\C,1.0480321876,-5.234661
 3248,-2.1507500184\C,0.5024127166,-4.0405655492,-1.6853411616\C,0.9069
 196206,-3.5991110554,-0.4239352117\C,1.8543983606,-4.3074754077,0.3513
 951669\C,2.3913132677,-5.4943195426,-0.1391236928\H,2.3863540757,-6.88
 05797401,-1.7817000734\H,0.746116842,-5.6088809202,-3.1226508033\H,-0.
 2088483953,-3.478267595,-2.2783031277\H,3.1234672769,-6.0492028645,0.4
 376642942\C,1.2248034266,-2.4004145377,1.4712403469\C,1.1089424581,-1.
 4793471271,2.5112317283\C,1.9025563085,-1.6797299283,3.6372255073\C,2.
 7625928202,-2.781136871,3.7325336366\C,2.836750868,-3.7234356356,2.705
 0215209\C,2.0588821692,-3.5375950573,1.5659090211\H,0.4280069551,-0.64
 11845639,2.4478750552\H,1.8482311135,-0.9673836048,4.4526366742\H,3.36
 90658015,-2.9103455137,4.6221973654\H,3.4858213049,-4.5876982608,2.796
 5306026\N,0.5446164261,-2.4343618464,0.2545781108\\Version=ES64L-G16Re
 vC.01\State=1-A\HF=-2560.2473014\RMSD=4.966e-09\RMSF=1.417e-06\Dipole=
 2.8265854,1.6274674,1.5361671\PG=C01 [X(C48H31N3O2S1)]\\@


 IN THE WOODS WE RETURN TO REASON AND FAITH.

                                 -- EMERSON
 Job cpu time:       0 days 13 hours  7 minutes 44.0 seconds.
 Elapsed time:       0 days  1 hours 19 minutes 38.8 seconds.
 File lengths (MBytes):  RWF=   3886 Int=      0 D2E=      0 Chk=    215 Scr=      1
 Normal termination of Gaussian 16 at Sat Nov  2 06:15:40 2024.
